/*--------------------------------*- C++ -*----------------------------------*\
  =========                 |
  \\      /  F ield         | OpenFOAM: The Open Source CFD Toolbox
   \\    /   O peration     | Website:  https://openfoam.org
    \\  /    A nd           | Version:  12
     \\/     M anipulation  |
\*---------------------------------------------------------------------------*/
FoamFile
{
    format      ascii;
    class       volScalarField;
    location    "100";
    object      p;
}
// * * * * * * * * * * * * * * * * * * * * * * * * * * * * * * * * * * * * * //

dimensions      [0 2 -2 0 0 0 0];

internalField   nonuniform List<scalar> 
44296
(
-3.53901
-1.55854
-0.460787
0.282419
-2.94593
-0.821207
-0.305155
0.126345
1.35548
0.42283
0.0841255
0.162585
0.779184
0.463003
0.483127
0.21656
-1.2933
1.88483
-0.736134
-0.851488
-2.03082
-0.567339
-2.58663
-2.14282
-0.94364
1.24251
0.72425
0.305526
-1.3002
-0.318897
-1.19207
0.387459
0.588172
-1.20305
-0.265652
1.73314
0.330937
-0.703792
0.475472
-0.337593
0.215409
0.62249
0.318836
0.215653
-0.107145
-0.349896
-0.0277853
0.28206
-0.58478
-0.93059
-1.64637
-0.269331
-0.398025
-0.762804
0.180076
-0.691589
-0.808307
-0.00142613
0.438073
0.0806347
-0.872559
-0.191809
-0.598861
0.204337
-0.00258207
0.152957
-0.109032
0.173999
-0.230437
-0.0635321
0.0224
-0.21667
4.42715
0.897948
1.94937
1.09691
2.35202
1.68686
2.26578
1.67698
3.3733
3.45074
1.06954
0.980966
1.37673
2.26068
1.44554
1.50825
1.27623
1.92553
1.22828
1.92911
1.89577
1.48402
1.46704
1.59706
2.37122
1.92978
1.16428
0.906875
2.53922
2.36606
1.05939
1.67514
-0.578974
0.0579578
0.0408374
-0.173969
-0.439205
-0.200619
-0.215572
-0.377644
1.64479
-0.464019
-0.00177223
-0.948243
0.435203
0.218154
-0.483915
-0.549491
1.82379
1.6138
1.80316
1.52416
1.72222
2.46201
1.70689
2.04193
-0.0185157
0.632399
0.241253
0.0632699
1.1717
0.0275388
0.171899
-0.335165
-0.356794
0.206066
0.956975
-0.18644
-0.0319629
-0.37835
-0.0724415
-0.0654033
-0.438318
-0.0887149
-0.325784
0.297994
-0.131856
-0.261317
-0.293038
-0.162704
0.0453752
0.225794
-0.016816
-0.218365
-0.00345254
-0.181645
-0.17995
-0.127858
1.91433
0.693948
-0.123801
-0.809337
0.427057
0.471175
-0.178841
-0.569975
1.6469
1.41884
0.857965
0.759774
1.82303
1.85886
0.845709
0.875149
-0.0335776
0.781341
0.452995
-0.698236
-0.086787
1.4413
-0.848858
0.556838
2.36196
1.32594
1.87012
2.08238
1.36253
1.19152
2.15879
2.26305
0.129637
0.0273025
-0.496525
-0.47856
0.0920405
0.0768847
0.0497824
0.010837
0.251538
1.48217
1.02545
0.806462
0.419537
1.17651
0.804812
0.991226
1.30175
0.113154
0.0908927
0.447155
0.738333
0.452724
0.458119
0.142179
2.1422
1.32589
1.52663
1.84003
1.15428
1.41055
1.28194
1.00614
3.11232
2.20066
1.18136
1.901
2.0017
1.94056
2.12081
1.43958
2.50092
1.73327
1.56437
1.67511
1.92952
1.66433
1.56337
1.50088
-2.39222
-3.54751
-0.0829276
-0.151443
-3.23177
-3.51445
0.144571
0.21274
2.11192
2.70716
1.90868
1.56116
1.15569
2.31105
1.06775
1.55406
0.373205
0.615082
1.43066
-0.480379
-0.212786
1.00165
-0.0943487
0.58213
-0.263488
0.254113
0.189155
0.216159
-0.540169
-0.245463
-0.437512
0.180317
0.324674
0.406941
-0.138832
0.0810947
0.222228
0.339782
0.254267
0.163298
0.473824
0.202935
0.432694
0.2086
0.479064
0.522714
0.097552
-0.146546
-10.5841
-8.70964
-3.73167
-5.12511
-7.71029
-7.86748
-3.21459
-4.02489
2.41195
2.65391
1.56506
1.38579
2.80267
3.00139
1.96179
1.26672
2.2897
1.82001
2.31621
1.73062
1.8161
1.90539
1.54285
1.85913
1.4665
0.132226
0.294498
0.471131
-0.340481
0.0492878
0.0885473
1.37109
0.676769
0.900498
-0.128114
-0.00909348
1.77248
0.976583
0.30586
0.182688
-0.521576
-0.515015
-0.150629
-0.394092
-0.594642
-0.527211
-0.31754
-0.376922
1.76558
0.286159
-0.318627
-0.0826302
1.0446
0.378227
0.585619
-0.185279
1.28641
1.53736
1.25006
0.758638
0.809654
1.01748
0.85892
1.07577
1.3701
-0.110005
-1.15369
-1.41806
-0.346337
-0.437815
-2.3703
-2.37321
1.0652
1.4866
1.14202
0.960063
0.848222
1.34532
0.966459
1.40924
-1.65828
2.13063
0.0951853
1.27073
1.80226
0.840112
0.981359
0.889152
2.83939
3.04414
1.83561
1.98096
2.01536
2.23898
2.18623
2.34462
0.0211124
-0.254806
-0.0124551
-0.12186
-0.226272
0.207033
-0.2282
0.274872
2.71791
0.978325
1.46956
0.619777
0.822528
1.01766
0.825683
1.36914
0.0790862
0.202678
-0.0247667
-0.274714
-0.281884
-0.0442012
-0.174669
0.164595
0.12583
-0.407231
0.233855
-0.479145
-0.729656
-0.894842
-0.77862
-1.04889
2.62233
1.59006
1.43087
0.820398
1.62061
1.49254
1.65437
1.5201
0.76631
0.956454
1.27389
0.92361
0.360739
0.525798
1.52171
0.633907
0.964176
0.0135545
0.395056
0.0278456
0.891936
0.642831
1.09749
0.20675
0.751258
0.795124
0.701814
0.199732
1.18842
3.5177
0.0992648
1.20437
1.15771
1.66797
1.99716
1.30219
1.19991
2.20543
1.40463
2.13063
-0.927093
1.83462
1.40386
3.4246
3.41651
3.19371
3.46679
1.43163
2.10409
2.87707
0.96227
0.521553
1.06295
1.14588
0.749591
1.26765
-1.01499
-0.682048
0.118982
-0.0687721
-1.24527
-1.12703
-0.342903
-0.64947
-0.220655
2.74314
2.31153
1.45543
-0.459572
-2.12436
1.28041
0.966461
0.343166
1.71659
0.94946
0.343991
0.300678
0.720411
0.222606
0.467702
0.942417
5.48091
1.49254
1.99875
2.13095
1.69551
1.70552
1.623
-1.22243
-0.28426
-0.252121
-0.0379955
-0.659445
0.438514
-0.778865
0.301397
-4.06223
-4.12433
-4.91753
-3.20385
-4.66522
-3.99669
-5.13847
-3.87775
-0.245189
-0.749994
0.498972
-0.261976
0.396975
-0.313035
-0.104547
-0.945863
-1.00317
-0.62756
-0.253367
-0.458043
-0.437522
-0.21735
-0.425534
-0.169764
-0.12741
-0.623761
-2.48964
-0.877838
-0.824171
-1.15432
-1.12555
-1.40917
0.510664
-0.246718
-1.2546
0.216607
0.419855
-0.450709
0.130369
-0.675355
-0.121093
0.135653
0.300499
-0.352746
-0.0584303
0.625416
-0.0418768
0.150222
1.0728
2.2682
1.52094
2.11148
1.73806
1.42422
1.72625
1.83796
0.778371
0.708462
0.558219
0.507871
0.741416
0.596111
0.399468
0.63601
1.15034
1.74338
0.0926814
0.654017
2.01525
1.08378
0.968024
0.856481
-0.818621
0.477785
0.284299
-0.546031
-0.69255
-0.0167173
-0.685613
-0.539093
1.20535
0.810709
1.04412
0.141016
0.996027
1.11372
0.793096
0.838791
0.532889
0.419884
0.779974
1.69275
0.345532
0.313061
1.02639
0.237501
0.180887
-0.0149963
1.23781
0.766403
1.31964
0.99773
1.5478
0.732858
1.23461
0.235927
0.610399
-0.697966
0.815425
0.34683
0.0959922
0.104991
0.711299
2.66975
0.64441
1.39933
1.88552
1.19059
1.17972
1.15744
0.682282
0.308706
0.53916
0.837407
-0.212148
-0.128654
0.114701
0.626888
-1.45125
-0.601166
-0.705197
-0.961865
-1.52374
-1.12801
-1.15782
-1.31653
1.58628
1.25839
0.440837
0.581319
1.11468
0.619194
0.591527
0.831088
1.34098
0.302755
1.08647
-0.429417
0.837624
1.02498
-0.291368
0.402547
-1.74078
-1.079
-0.67398
-1.77983
-1.32844
-1.54091
-1.06996
-0.86673
-0.11084
0.130348
1.86879
1.7027
0.676885
0.106227
1.60618
1.5277
-4.1496
-4.55126
-4.64872
-2.64829
-3.85587
-4.96028
-3.54099
-4.31467
-0.691031
-0.0680789
0.177791
-0.658657
-0.634719
-0.775753
-0.532578
-0.432672
-0.934275
0.0560022
-0.786893
-1.30441
-1.88768
-0.931766
-0.949072
-1.24304
2.48627
0.119508
1.81877
0.333547
1.57839
0.731222
1.5257
1.15627
-0.18826
0.580168
0.434866
0.705996
-0.55946
-0.00541161
-0.581702
0.889734
-1.01704
-0.621068
-0.745804
-0.683725
-0.486271
-0.639567
-0.790822
-1.07813
1.74334
0.292838
1.04862
-0.906436
0.493568
0.307932
-0.0578646
0.0612941
0.73836
-0.193852
-0.577204
1.02561
0.954955
0.863093
0.684884
-0.0887718
-1.11659
-0.318581
-0.191715
-1.85711
-1.25438
-1.26503
-1.62918
-0.547953
-3.35757
-2.77732
-5.97825
-6.33807
0.114398
-3.1712
-1.00431
-3.28821
0.441092
0.0639608
-0.223164
0.0575228
0.817192
0.430915
1.09753
1.51647
-4.64215
-4.97911
-2.62652
-2.78049
-3.98288
-4.08507
-4.16955
-4.01547
-1.89385
-4.22603
-2.63374
-0.672465
-1.85068
-3.18041
-1.53933
-2.22384
1.33423
-1.79814
-3.62844
1.41785
-1.22035
-0.663747
-0.0395571
-1.73309
-2.78124
0.19076
-0.575375
-3.80505
-6.80803
-2.56015
-5.83832
-4.82925
1.19273
1.38174
1.18645
0.889323
2.02492
1.29663
2.03772
1.5123
0.148485
0.0551367
0.370365
0.215416
0.192275
0.0631905
0.0762241
0.0804455
1.34098
1.68604
4.87197
1.54268
1.71371
1.28177
1.07626
0.492842
1.8306
0.773465
2.06061
1.31348
3.09941
2.23499
1.76904
1.19873
0.310362
0.425002
0.596903
-0.201631
-0.176707
1.87307
-0.920166
-0.506204
0.232099
0.736838
1.01858
0.122681
0.621746
0.551127
0.597626
0.772265
0.106209
0.400462
-0.0123127
0.295148
0.0446889
-0.0408233
0.0849728
-0.0663629
-0.207216
-0.634003
-0.506719
-0.381379
-0.822025
-0.246372
-0.881786
-0.634528
1.06839
0.357561
0.513711
-0.172456
0.698734
0.8106
0.368628
0.252522
-0.38265
-1.08563
-0.577458
-0.297931
-1.5492
-1.80179
-1.22401
-1.55577
1.86403
1.6103
1.60416
1.21804
1.71153
1.24834
1.03176
1.29922
0.264436
-0.92243
0.305002
0.0218946
0.30544
-0.268397
-0.0155302
-0.263221
0.45181
1.11466
1.15384
1.11106
1.05486
1.65586
1.01831
1.32664
0.123922
0.257729
0.333326
0.515947
0.195189
0.0944512
0.391675
0.365026
0.519756
0.231596
-0.0184909
0.273066
0.809662
-0.54732
0.18912
0.0669964
0.462804
0.049273
2.48016
1.64996
0.864625
0.505387
0.69725
0.564339
-0.501053
-2.63594
-0.840733
-0.887342
-1.42307
-1.42702
-0.934677
-0.750071
2.34241
1.37671
2.45287
0.668692
1.29503
1.96559
0.798043
1.45242
-4.86575
-1.64964
-4.55018
-3.58049
-5.69859
-4.75638
-5.19303
-5.19888
1.12346
1.7722
1.02529
0.889014
1.88672
2.35868
1.53233
1.19366
0.722706
2.00345
0.516252
2.47191
2.38643
1.8379
2.98784
2.51263
-1.86505
-2.71132
-0.523242
-1.06352
-1.83891
-1.9367
-0.254513
-0.287612
1.36653
0.464033
-0.051694
-0.206048
0.723533
0.543892
0.150173
0.203119
1.0561
1.51633
1.97793
1.10083
1.23928
1.48653
1.58673
1.22995
-2.49352
-0.852161
-2.21573
-1.54798
-0.256011
-2.43068
-1.14308
-2.29833
-0.101906
0.233476
-0.446203
0.14502
-0.229762
0.177246
-0.395671
-0.0765848
0.21406
0.447642
0.104427
0.163644
-0.446319
-0.0749078
-0.108459
-0.135308
0.901551
1.03241
1.40798
1.74836
0.854015
0.312785
1.08174
1.20122
-4.60291
-3.19771
-4.90768
-3.23057
-4.122
-3.91924
-4.14722
-5.78541
0.52584
-0.155363
-0.730663
-0.844444
0.0256235
-0.0906627
-0.427941
-0.770475
-0.498522
0.279846
-0.153087
-0.955765
-0.555949
-0.155522
-0.680933
-0.342198
-2.07663
4.93171
0.0588681
0.988203
-0.527348
1.13946
1.58406
1.09938
-0.40739
-0.0652785
-0.337078
-0.550126
-0.0603479
0.0732211
-0.356801
-0.36947
-0.0462082
0.0737492
0.318952
0.125388
-0.0247645
0.105243
0.343782
0.214554
0.472727
-0.303429
1.24957
0.381608
0.337128
-0.214223
0.343147
-0.170023
-0.137805
-0.120319
0.376765
0.175145
-0.135204
-0.133784
0.0367355
0.0253058
-0.272278
-0.990288
0.749661
-0.163726
-0.815046
-0.43125
0.285903
0.278373
0.143123
0.15457
1.33183
1.01313
0.491188
0.598954
0.989363
1.26834
0.832797
0.898475
0.862599
0.759673
0.33211
0.866537
0.973709
0.665528
-0.156899
0.121115
-0.0938709
-0.0674574
1.00753
0.518424
0.323291
0.878926
-0.176918
-0.350066
-0.843146
-0.0458807
-0.0476136
-0.370394
0.0261606
-0.611523
1.85913
2.32034
1.86982
1.1085
1.45418
2.11183
3.45239
2.78321
0.693222
0.542169
0.322558
0.447252
1.11336
1.8371
0.768806
0.747955
1.51651
0.484201
0.203066
0.168212
1.35828
0.548783
0.803607
0.120596
0.861767
-2.84927
-1.38505
-0.767407
-1.12622
-0.926599
-1.98715
-1.72332
0.810003
1.25249
0.340718
0.246934
1.21705
0.859
0.151748
0.268467
0.657165
0.194714
0.0873128
-0.134608
0.2796
-0.830726
-0.0418202
-0.21209
-5.9319
-9.13835
-3.08616
-4.27833
-6.80943
-7.17871
-4.46323
-4.80405
1.88293
2.94504
2.75264
1.34151
1.44801
3.23069
0.894428
1.19614
-1.50627
0.247792
-0.0775575
0.828894
-0.0896788
0.122024
0.378875
0.818499
0.143205
0.698607
0.391491
0.181803
0.609121
0.884344
0.523049
0.520774
-12.365
-3.43293
-8.12223
-3.74403
-5.94652
-6.07138
-6.41846
-7.11927
-0.0827115
-0.0341617
-1.43109
0.31576
-0.0385242
-0.389657
-0.11037
-0.687204
-0.617431
-1.11956
-1.27893
-1.71051
-1.2663
-0.941062
-1.43477
-1.34575
-1.78813
0.531936
-1.66606
-0.314638
-0.678404
0.0234473
-1.06193
0.663716
2.20079
2.07782
0.992428
1.46169
1.63975
1.99212
1.40018
1.34136
-0.16296
-0.126062
-0.246386
-0.429098
-0.107931
-0.11869
-0.0699928
-0.241569
-3.63387
0.931602
2.22736
-1.25297
-1.54839
-0.633277
-2.41773
-2.27453
1.42745
3.10103
-2.48288
-0.339478
0.282451
1.71013
-1.14043
-2.04787
-6.11288
-3.69332
-2.45553
-2.09281
-3.12362
-4.09407
-2.51842
-2.74997
1.34865
1.27483
1.25316
0.581418
1.23369
1.27081
1.02279
1.49695
2.74492
1.69022
0.911044
1.01208
1.54657
2.05671
1.22966
1.21468
1.52595
0.331757
0.372803
0.822786
1.2333
0.860867
1.01805
0.691297
-7.24778
-1.84713
-1.69716
-1.7529
-2.50223
-2.48969
-1.48687
-0.343908
-0.134833
0.968916
-0.126539
-0.195792
-0.615207
-0.343903
-0.123048
-0.149411
1.12661
0.382245
1.83789
0.788065
0.382241
0.70734
1.63215
1.65683
5.1394
3.58345
1.79144
0.284065
2.24878
4.74399
0.308118
1.92333
1.29381
1.12342
1.68059
1.07586
0.969932
0.235242
0.00969323
-0.527914
-0.69171
-1.05768
-0.41261
-1.73829
-1.08812
-0.804385
-1.18546
-1.13122
-1.94837
-0.566888
-1.06658
-0.358587
-0.348281
-0.889906
-1.09565
-1.09727
3.3639
0.462505
1.63212
2.35264
0.211136
1.08153
1.63583
2.17802
-1.43266
-0.454924
-0.219004
-1.5954
-1.67261
-0.719096
-1.38292
-0.870953
-1.33034
-2.14134
-1.56514
-2.06506
-1.94935
-2.31963
-2.17016
-2.77876
-0.0717863
-0.620008
-0.313783
-0.227
-0.166266
-0.249343
-0.132814
-0.404781
0.0929324
0.0105492
0.543682
1.13595
0.100567
0.215656
0.196002
0.35224
0.464594
1.3581
1.40931
0.960547
0.838523
2.11197
1.00172
1.12925
6.56199
3.49438
3.80631
2.39189
4.82925
2.87808
3.53705
3.22513
3.25336
-0.298798
-0.453524
0.0903685
-0.406327
-0.257616
0.146491
-0.137788
-0.682269
-2.5553
-1.06348
-0.830878
-0.803448
-2.21091
-0.555024
-0.890653
-1.07616
-0.766434
-0.930877
-0.696289
-1.26502
-1.16685
-0.752639
-0.998896
-6.35971
-5.8172
-2.2644
-4.00182
-6.87497
-7.88314
-5.06683
-6.02816
3.92931
1.79485
2.13424
2.9876
2.42475
2.62712
1.98912
2.26553
0.297184
-0.0174221
-0.140451
0.216233
0.213253
-0.0207635
0.151815
-0.0696913
-0.132762
-0.91128
0.386417
0.180804
-0.741264
-0.424397
0.0737208
0.0487034
0.0678717
0.0743626
-0.465011
-0.293209
-0.0517439
0.067589
-0.328253
-0.113984
-0.762174
2.98037
-2.15729
1.81072
-0.179899
-0.251775
1.85685
0.461949
-0.757647
-1.48168
-1.43126
-0.292001
-1.08556
-0.977672
-0.105107
-0.675041
0.702909
4.7526
3.55074
1.3705
1.58154
2.086
1.11617
1.71991
-0.0451044
0.436956
0.179735
-0.596968
-0.347561
0.790664
-0.654429
0.199181
1.5396
-0.0847457
0.401078
1.07339
1.85437
1.96247
2.08504
1.34418
0.0728687
-0.03754
1.05454
0.108809
-0.200346
0.403316
0.000834928
0.168918
-0.814131
-0.314583
-1.32164
-0.139996
0.127306
-0.0518864
0.408309
1.14769
0.619537
1.11756
1.40085
1.04704
0.446286
0.781915
0.614063
0.782258
2.12864
-0.0423975
1.41062
-0.794474
0.769912
0.287635
-0.0658994
0.311837
0.100931
0.139341
0.0861412
0.239813
0.121972
0.0433416
0.0353073
0.0399918
0.412487
5.19259
1.98296
2.3131
3.42161
2.8016
1.64337
2.89137
0.5125
-3.17381
0.272176
0.718675
0.0994753
-2.41558
0.742742
-1.04286
-2.10051
0.0542749
-1.3075
0.316947
-0.570513
-1.11592
-0.178734
-2.02332
-0.719013
-1.94271
-2.47396
-1.3513
-0.854966
1.06038
-1.95091
-2.27399
-0.921562
0.626272
1.19309
-1.10176
-0.549004
-0.530851
-0.711442
-0.199314
1.39034
-0.123247
0.041803
0.511322
0.765504
0.0210684
0.963658
0.658737
0.147935
0.274993
0.264224
0.183729
0.182763
0.255108
0.120995
0.212042
0.349079
1.72628
0.181763
0.710561
1.35151
0.587469
0.659499
0.536556
0.359863
0.0768049
2.47893
1.14216
1.47886
1.65736
1.92884
3.16803
-0.325468
-0.204391
-0.0220589
-0.195602
0.319872
-0.390141
0.279894
-0.176938
-0.292258
-0.867237
-0.2336
-0.0561496
-1.00136
-0.849036
-0.240808
-0.315648
0.577978
0.77148
0.233875
0.554862
0.337798
0.184285
0.652568
-0.189453
10.5506
7.05629
5.51546
1.55845
5.19295
5.72592
4.19887
5.96922
-0.150207
0.813218
1.74677
0.141717
0.583464
0.233808
-0.102673
0.00482911
-1.1534
-0.602878
-0.339903
-0.849166
-1.00688
0.408171
-1.35338
-0.651033
0.34692
-0.567444
-0.00785854
-0.115102
0.0303727
-0.249001
0.0312502
-0.116269
0.0808582
0.0472278
0.115697
0.806811
0.322085
0.23277
0.449396
0.0661644
-1.39332
-1.39623
-3.00364
-0.78362
-1.77046
-1.81012
-1.77263
-1.91704
0.505451
-0.211431
-0.190617
-0.471459
0.054527
0.187747
-0.101834
-0.0646975
1.92959
1.00636
0.130866
0.63536
1.11935
0.89667
0.591016
0.76274
0.013258
-0.0802535
1.40943
-0.0696344
-0.0230033
0.133476
0.0236297
0.313681
-2.46899
-1.3983
-0.633748
-2.68506
-2.50585
-1.38482
-2.6032
-1.78631
-1.64973
-1.61117
0.499229
-1.16666
-1.99663
-1.71833
-0.444614
-0.595529
0.443034
0.497977
1.35381
0.676141
0.725302
0.646407
0.275587
0.811976
-0.194568
-0.0506431
-0.908945
-0.205836
0.059066
-1.05659
-0.172861
-0.95296
0.311281
2.2935
2.54061
-0.0184672
1.49149
2.18311
0.692038
1.97316
1.27087
0.854959
0.760279
1.21699
1.21075
1.03736
1.32044
1.04067
-0.0846478
1.39407
-0.305043
-0.0135582
-0.284306
0.176074
-0.241738
-0.0293707
0.00727664
0.481232
-0.232322
0.430624
0.223844
0.291533
0.309238
0.476879
1.0989
1.32859
0.0120181
0.938321
1.0844
0.357444
1.00515
0.634354
-6.33827
-1.01721
-4.68947
-2.90796
-4.80818
-3.35765
-5.29211
-5.24682
-0.0807973
-0.876806
-0.789481
-0.704045
-0.0899699
-0.213716
-0.877997
-0.923936
-2.8274
-4.36398
-3.05937
-2.83819
-2.94936
0.12139
-3.57396
-3.73131
-0.69669
-0.869908
-0.476087
-0.715179
-0.675008
-0.565306
-0.0358716
-0.368157
-1.39292
-0.0725015
0.34006
-0.668841
-0.442265
-0.411065
-0.155511
-0.120403
2.41822
0.514427
0.872834
1.12972
1.61199
0.834366
1.19316
0.418048
-2.95882
-0.359976
-0.836248
-0.882443
-0.748557
-0.151711
-0.725329
-1.20343
-0.00276735
0.170356
-0.0983496
-0.30376
-0.840717
0.395139
-0.770995
-0.141516
2.61862
1.96896
0.056812
1.83575
0.646296
1.40824
1.54017
1.47458
0.658134
-0.617936
-0.596915
0.719166
0.797294
-0.358128
0.0869833
-0.31647
-0.797127
1.91132
-0.673282
-0.82728
-0.795164
-0.19735
-0.989578
-1.14701
0.120513
-0.782155
-0.85314
-0.141489
0.18111
-0.221457
-0.220493
-0.666016
-0.966458
-0.142615
-0.749345
-0.546058
-0.252435
-0.629633
-0.0717152
-0.426561
0.439168
0.624645
0.343153
-0.146469
0.235794
0.470721
0.0101457
0.13043
2.89973
3.84536
4.43398
-0.0484115
-0.414144
1.95781
0.503127
1.44808
0.177092
0.465736
0.63757
0.45862
0.36841
0.595542
0.549823
0.654934
-0.627774
-0.230247
-0.649223
-0.294698
0.176939
-1.2046
-1.44723
-1.10739
-3.45117
-4.64644
-2.86861
-2.32371
-3.81383
-4.70612
-2.59158
-4.20439
0.294186
1.29189e-05
0.0768801
0.448149
0.33994
-0.00372402
0.397704
0.0709306
-1.39837
6.40177
2.51719
3.74759
2.34378
2.05751
3.9403
4.41443
-1.32704
-3.16697
-3.76283
-2.22613
-4.44996
-3.85268
-5.53492
-5.49812
-5.15457
-1.84079
-3.22568
-3.22356
-4.09702
-3.1999
-4.29128
-3.16853
-19.0127
-20.8988
-11.1108
-2.36527
-14.6592
-16.8171
-8.45437
-13.003
0.235657
0.568388
0.0169016
-0.166464
0.240925
0.38284
0.00091951
0.0381394
0.253568
-0.0387795
-0.111344
0.147095
0.0313703
-0.111475
-0.0781753
0.00181341
0.936341
-0.0399663
0.89
0.432265
0.138021
-0.540352
0.342534
0.336977
-0.0570964
-0.0874911
0.538116
0.395887
0.276325
0.25324
0.480249
0.524123
-0.423271
0.713168
0.916271
0.772336
0.741584
1.08131
1.1753
1.14788
-0.417061
-1.23288
-2.40383
-0.883212
-0.488273
-1.61195
-0.753524
-1.00169
-5.36608
-1.92733
-3.46155
-2.03815
-3.25593
-4.40353
-2.82474
-2.71037
11.3897
10.391
7.56896
2.88766
9.5164
12.0082
8.3052
6.23743
-0.211467
0.470902
-0.297792
0.542699
0.732844
1.31213
0.16627
1.39889
0.159948
0.691249
1.78704
-0.925209
-0.779189
0.744306
-1.43197
1.06096
-0.894357
-0.239832
-0.839873
-0.84425
-0.562653
-1.33794
-0.639435
-0.844252
0.494184
0.647362
-0.707975
0.611947
0.352636
0.772252
0.28711
0.839426
-2.69882
-0.201773
-1.09437
-1.77993
-2.70329
-1.31064
-2.30926
-1.41779
2.62663
10.9872
17.4379
2.1997
6.55782
11.3409
7.26869
15.1996
-0.658973
-1.30377
-0.53013
-1.02969
-1.06369
-0.878755
-1.05382
-1.2768
-0.212857
7.10297
5.98171
4.64344
0.268307
2.87184
-0.282846
4.45674
1.21883
0.268073
5.17977
0.646487
1.16534
0.328247
1.72188
1.08155
-6.65304
-1.56941
-5.55796
-1.44617
-2.69184
-1.20398
-2.7315
-1.9273
1.15098
0.639964
0.727665
1.20527
0.908098
0.834709
1.60044
1.27893
-1.17769
-0.231982
-3.11438
1.325
-2.16273
-2.87163
0.211092
-1.51845
-0.701587
-0.0355898
0.838524
0.581119
-0.139031
-0.280222
0.0588478
-0.257334
8.00846
-5.63308
-4.68717
-0.375409
5.74452
-1.39035
3.49514
-2.65572
0.626028
-2.47051
-1.41521
-0.687372
-0.305002
-1.9727
-0.598839
-2.45872
2.17138
0.605658
0.733003
1.39288
1.87799
1.16707
1.57823
0.896318
-1.21107
0.759135
-1.02922
-1.12674
-0.91421
-0.638668
-1.18605
-0.366853
-0.722703
0.171264
0.037739
-0.306398
-0.715749
-0.0664181
-0.317504
-0.0379337
0.458132
0.839474
1.12498
0.163301
0.170039
0.509365
0.115996
0.461796
0.959819
1.3886
1.88835
1.25801
0.842077
1.37169
1.34794
1.53223
-3.07171
-0.617487
-2.32512
-1.46505
-2.74945
-2.19981
-1.26847
-1.05083
5.65796
5.2271
1.73378
3.24739
3.6845
3.25998
1.87042
1.45426
-3.81372
-1.58071
-2.21132
4.3467
-1.09599
-2.29987
0.133423
-1.56222
-3.88832
-2.3086
-0.93576
-1.64873
-3.05081
-2.20829
-0.86793
-1.35424
0.0165411
-0.051284
-0.492559
-0.100437
-0.08075
-0.249276
-0.243092
-0.469668
0.466744
-0.189775
0.604131
-2.07795
0.240923
0.267499
-0.197981
0.0599268
-1.5228
-0.342916
-4.00858
2.41487
0.686354
-0.986933
1.01384
1.13485
-0.803484
-0.677489
0.753545
0.0852687
0.227372
-0.38508
0.107553
0.18919
0.437536
-0.986271
0.218239
0.381423
0.898645
-0.326881
0.499941
0.356938
0.908132
0.954709
0.166747
0.216451
0.956025
-0.0258897
0.436909
0.451446
0.82681
0.298985
1.27512
0.233673
0.340996
0.745477
0.54577
0.542523
1.42718
0.190916
0.0793039
0.740455
0.582678
0.0963539
0.56866
0.207839
-0.82651
-0.594976
-0.604095
-1.01679
-0.819621
-0.412388
-0.939844
-0.580522
-0.371822
2.37888
0.135057
1.01272
1.06365
0.561765
0.775071
0.711027
0.30204
0.411418
1.05044
0.601625
0.543302
1.11044
0.392939
0.925557
2.47178
0.609801
2.07083
0.172877
1.63666
1.54078
1.06151
1.0761
2.07079
1.19549
0.466107
0.96647
1.731
1.37901
1.26077
1.00995
-0.308224
-0.539723
0.696173
0.205136
-0.0857736
-0.576004
0.22624
-0.287182
0.918286
2.34398
1.03779
1.78663
0.706404
1.7108
1.80918
1.50818
0.407718
-0.277976
0.572436
-0.850787
-1.9023
-0.849972
-1.31671
-0.612711
-1.94313
-1.15275
-1.40878
-1.9453
-2.15489
-1.70427
-2.31314
-1.59708
2.95658
2.26259
2.00519
1.15013
2.36371
2.22168
1.72936
1.77132
4.5566
3.12534
2.14492
3.83363
4.7366
3.10525
2.52432
1.48009
-1.42466
0.211408
-1.02492
-0.643116
-1.12031
-0.129543
-0.721145
-0.612691
1.48424
0.835202
4.35507
1.50473
2.02581
2.13145
2.98745
3.35029
0.246571
-0.360067
-0.922626
-0.207299
0.261794
-0.756654
-0.473061
-0.860257
2.24966
0.83503
0.0218769
-0.603537
0.626779
0.885251
0.180302
-0.224696
0.532636
0.977735
-0.167417
-0.229814
0.706734
1.02495
-0.316307
-0.843415
0.0914695
0.113313
0.0643486
0.358423
0.102935
0.0779251
0.149251
0.0689416
-2.08801
-0.94812
-0.502022
-1.08429
-1.63716
-1.28115
-1.09632
-0.979459
-0.10909
0.524513
-0.215799
0.0938128
0.128564
0.105419
0.0670634
0.104897
4.26876
-2.67412
0.159283
-2.69562
-0.246483
0.882054
-1.27252
0.268427
0.653672
-0.951176
-0.265146
0.116054
0.921042
-0.707085
-0.0390839
-0.26174
8.32541
1.65045
3.93036
0.9631
3.86287
6.44624
1.7749
3.56011
0.199807
4.80233
1.96726
0.0873694
-0.0563731
2.19582
1.04548
1.89098
0.656964
0.687396
-0.0312065
0.0355227
0.0753815
-0.380374
0.0861089
-0.216182
0.763736
0.0436179
0.260757
0.159851
0.553122
-0.320541
0.20637
0.249955
-0.0952868
-1.18172
0.432985
-0.736646
-0.413278
-0.728134
-0.451569
-0.468601
-0.442741
-0.704552
-1.8721
-1.27815
-0.556036
-0.765967
-0.568016
-1.16107
1.20715
2.85197
2.81634
-0.00648059
1.15411
2.66641
0.0515932
0.867537
-0.0332662
0.0857568
-0.0152953
0.114831
-0.0702333
-0.0115488
-0.00467102
0.0196462
-0.033955
0.070633
0.547688
0.01163
-0.169178
-0.249236
-0.272761
0.019791
1.89437
2.9744
0.535187
0.715684
1.4556
1.00448
0.636669
0.296439
0.430671
-0.00714901
0.116833
0.595111
0.561092
0.648008
0.52158
0.205831
0.766399
2.88167
0.637959
-0.196085
-0.615018
-0.0992125
-0.870912
-1.14391
8.30733
1.75865
9.69568
4.54565
6.17216
4.56487
5.98294
6.33952
-0.0791087
0.392588
1.02054
-0.433647
-0.137104
-0.466232
-0.292138
-0.319543
-0.228957
-0.0436898
2.22359
0.329238
0.420974
1.43833
0.27192
0.648698
2.61652
1.10324
2.63345
0.989755
1.16848
2.1576
1.5669
2.95313
0.68777
0.377201
3.60657
0.584545
2.08264
0.988753
2.70254
1.44297
-0.452454
0.0304362
1.07314
-0.709525
-0.234943
0.312485
-0.306183
0.741023
-0.166198
0.00314123
-2.53617
-2.30252
-1.79376
-2.32824
-2.76862
-2.82454
0.12533
0.180637
1.55826
0.46566
0.94414
0.603589
1.08995
0.858331
0.558004
-0.305283
0.0423502
0.446346
0.368577
1.6273
-0.470412
0.702397
-0.818032
-0.162361
-1.90141
0.588273
-0.522443
-0.365832
0.757973
-0.0128289
-1.40762
-0.215382
0.351283
0.514141
-0.716189
1.34745
0.387904
0.488941
-0.0436496
-0.0048049
-0.0365011
0.169486
-0.011414
-0.0420583
-0.109474
-0.0953592
-0.688553
-1.87902
-0.620718
0.0332498
-0.622004
1.44779
-0.168302
-0.123731
0.838717
1.60698
2.93868
3.891
4.21691
4.06078
1.61135
3.91816
0.338758
-0.0791757
-0.251226
-0.67159
-0.287135
-0.577485
-0.24474
-0.496678
2.30668
-0.0177614
1.48323
-1.45633
0.170613
0.598966
0.25039
0.881733
-1.15195
-0.352972
-0.0129619
-0.326857
0.478159
0.680102
-0.215421
0.268872
3.71806
3.8275
0.00371432
1.14105
2.03449
1.75398
0.0844163
0.309965
-1.96807
-0.263988
-1.12582
-0.877675
-1.37785
-1.37242
-1.37276
-1.4274
-2.35944
-0.0347724
-0.723415
-1.97755
-2.12147
-0.666143
-2.22808
-1.01727
0.458422
0.873957
0.773128
0.31393
0.255154
0.46009
0.405307
0.200927
1.89741
1.79288
2.682
3.00698
1.97879
2.57466
2.26411
2.81521
-3.83003
0.261672
-6.37624
-0.520523
-1.69467
-2.51418
-3.51883
-4.18561
-0.601939
0.617307
-0.902114
-0.813028
-1.19317
-0.194069
-1.0651
-0.914661
-0.194111
-0.149441
0.119821
-0.418457
-0.917064
-0.330592
-0.317622
-0.415388
-1.49286
-2.22895
-1.57104
-1.63804
-2.18995
-2.48377
-2.54518
-3.29381
0.331812
-0.880681
0.672016
-1.93733
0.829934
1.92234
0.821295
2.10435
0.429232
-0.258611
0.150013
0.879527
0.543508
0.0441003
0.311735
0.0908458
-0.187521
-0.112591
-0.741394
-0.334329
-0.477795
-0.684465
-1.50263
-0.787273
2.02166
-0.504904
0.999656
1.06867
2.97446
1.65838
2.0962
2.544
0.0974388
0.0902879
-0.0413348
-0.0250679
0.0924868
0.035638
0.0522928
-0.0353435
2.82104
0.487989
1.44013
0.752463
0.588065
0.0851309
0.679295
0.945073
2.7184
0.437701
-0.94245
0.170745
0.827214
1.58017
-0.351213
-1.01634
0.654448
0.532858
1.05348
0.395715
0.687923
-0.191939
1.57909
1.02118
0.417272
0.289573
-0.0322369
-0.330333
0.221094
-0.336633
-0.0859368
0.00578833
1.95495
5.6307
1.14429
0.430858
2.78453
1.71586
2.1352
0.831607
1.74889
0.33638
-0.320198
1.18202
0.49792
-0.439176
0.724474
1.316
0.501774
1.58821
1.25729
1.07881
0.783565
1.28388
0.669009
1.17158
-0.056229
-0.141615
0.00804137
0.268318
-0.205841
-0.0341858
-0.00380643
-0.402709
1.82596
2.09917
1.3462
1.32208
1.87425
1.69413
1.47448
1.50398
4.31363
2.23188
4.79093
2.00112
3.65266
3.35258
3.58296
3.90805
0.639868
-0.353414
-0.432633
-0.201139
0.299801
0.376251
0.604266
-0.100635
-0.455614
-0.615922
-0.399639
-0.393537
-0.754414
-0.681024
-0.513898
-0.537302
0.831856
0.0986481
0.358342
0.494136
0.59342
0.397488
0.607096
0.110735
-0.798677
-0.899836
-0.770738
-0.152231
-0.436808
-1.29338
-0.995342
-0.929815
0.0111434
-0.583643
0.247823
-0.7714
-0.340209
-0.476489
0.00906872
-0.102088
0.275653
0.212575
-0.0271785
-0.49136
-0.288348
-0.298809
-0.367808
-0.120388
-0.445321
-0.592575
-1.08198
-0.555921
-0.847637
-0.934058
-0.806906
-0.915552
-4.40677
-0.113288
-1.05742
-1.04927
-1.4238
-0.435365
-0.975502
0.0794001
-0.415524
-1.23744
-1.13264
0.130876
-0.955221
-3.56424
0.256364
-2.11245
0.795173
1.02804
1.30804
0.194894
0.92154
1.43464
0.419413
1.10211
-0.328677
0.467128
0.748692
0.616442
0.454658
0.484436
0.289382
0.355089
1.09946
2.40065
0.823179
2.03686
0.757074
2.09883
0.942931
0.949127
1.53656
1.18439
1.18095
0.430368
0.805239
1.06684
0.71296
0.906164
1.00149
1.86366
-0.0117808
0.101151
-0.767552
-1.68373
-0.557292
-1.69492
1.35636
1.27029
1.33306
0.537095
0.957527
1.3225
0.640458
1.26419
-0.305954
0.0477046
0.551906
-0.421772
-0.701621
-0.262173
-0.159271
-0.726498
-0.537519
1.13686
-2.55763
0.881008
-0.90964
1.27532
-0.925515
-1.21528
-0.0129335
-0.428549
0.211907
0.226179
-0.0440255
-0.182621
0.138522
0.163741
0.543084
0.024929
-0.0131496
0.310458
0.24912
0.0490896
0.0818368
0.0123741
1.62281
0.200912
0.83001
1.54178
1.58505
1.0743
1.33344
1.5074
1.94288
0.473042
0.781487
0.986542
0.123679
4.24626
0.672003
2.11106
0.0935193
-0.229435
0.687016
0.433043
-0.255061
0.0304911
0.684142
0.45503
1.04737
0.938208
0.418626
1.09962
1.13669
1.08537
1.1364
0.611638
-0.889061
0.16033
0.0859686
0.145834
-0.234881
0.160051
0.0548313
0.0343336
1.43352
0.5688
1.92204
0.590397
1.28685
1.92383
0.917587
0.996127
0.718566
2.07828
1.19226
1.68723
1.59749
1.1619
1.32206
1.12167
0.790004
-0.144852
-0.666322
-0.539255
-0.42002
-0.902186
-0.0312942
-0.474801
1.17012
0.492192
0.0994945
0.294963
0.208952
0.28503
-0.0267963
0.00691151
0.503208
0.58017
-1.04391
-0.0429479
0.265605
0.0823058
0.360524
0.0291444
-1.81916
-0.402393
-0.572848
-0.428801
-1.26993
-1.68475
-1.37595
-1.77989
0.137055
0.20203
1.22689
-0.0290696
0.0312137
0.390604
-0.280425
0.72736
2.66259
0.27525
-0.147059
0.781636
0.332348
0.437694
0.191866
-1.82242e-05
0.986885
1.1826
0.574342
0.156568
0.847133
1.24509
0.512835
0.882975
0.336581
0.59556
0.0343134
1.36896
0.736575
0.492735
0.935704
0.575738
0.946394
1.17002
0.805575
-0.382432
0.907549
0.755915
0.637367
0.829234
9.98899
12.752
10.6182
1.84665
8.56864
9.89487
7.2352
9.30238
-0.99753
-1.04749
0.937712
0.905421
-0.00375131
1.30002
0.925721
1.32429
-0.332637
1.03467
0.163489
0.404264
0.241223
0.825343
0.35519
0.577715
3.38442
0.450305
1.34138
0.871633
2.57214
2.63921
1.10047
1.3749
1.32089
0.541423
-1.98211
-0.984177
-0.920425
-2.08333
-2.19364
-3.03071
1.67469
-2.68849
-1.77202
-0.439941
-1.6314
-2.13986
-1.25061
-2.45707
2.5829
1.48239
0.734822
0.890596
1.51442
0.909649
1.04114
0.809661
0.879703
-0.472779
2.41637
0.656804
0.813347
1.54012
0.388217
0.595208
-4.78505
-6.46988
-3.03421
-3.91032
-4.46527
-5.52409
-5.71964
-5.28899
1.43837
-0.0529803
-0.0507614
0.952486
1.52694
0.280403
0.651066
-0.0787012