/*--------------------------------*- C++ -*----------------------------------*\
  =========                 |
  \\      /  F ield         | OpenFOAM: The Open Source CFD Toolbox
   \\    /   O peration     | Website:  https://openfoam.org
    \\  /    A nd           | Version:  12
     \\/     M anipulation  |
\*---------------------------------------------------------------------------*/
FoamFile
{
    format      ascii;
    class       surfaceScalarField;
    location    "100";
    object      phi;
}
// * * * * * * * * * * * * * * * * * * * * * * * * * * * * * * * * * * * * * //

dimensions      [0 3 -1 0 0 0 0];

internalField   nonuniform List<scalar> 
83056
(
18.918
-24.244
15.7993
-10.4735
-23.8455
15.6352
18.8338
-10.6235
17.1801
-25.9173
20.8881
-12.1509
-12.5888
-26.5288
17.6981
21.4194
7.59003
-4.50438
15.8323
-4.63589
-11.6196
8.29908
-25.3923
20.8433
0.407234
-0.198668
19.5289
-19.7374
-0.075111
20.3704
0.34593
-20.641
-20.7493
-0.0874973
20.4822
0.354697
20.4836
-0.0928826
0.351821
-20.7425
20.2211
0.268823
-20.0826
0.263661
19.8823
20.8719
-0.119304
0.386201
-2.20238
-7.05253
9.25483
9.96246
-2.17424
-7.78834
-7.42041
-2.4063
9.82666
0.0272141
-3.21353
-7.8901
11.0763
-2.50743
7.89755
-7.59265
7.45498
-2.64737
10.5721
-2.61281
-13.9431
-17.4561
7.15496
-18.9527
-15.3546
7.77848
7.65046
-18.5769
-14.9909
25.1081
-17.9346
-14.4429
7.26916
10.9065
-32.0426
7.19279
-33.4387
11.0749
-18.0094
-14.7133
-5.22076
12.2206
8.79938
-16.7255
-5.7703
13.4696
9.02624
8.64635
-5.29002
12.2789
13.7505
-5.67165
9.61923
7.75305
-21.8381
8.86411
-21.9683
12.9958
7.74472
-5.5772
-16.8245
22.8816
8.34132
-14.3985
8.54558
-17.4313
23.8287
-14.9431
-14.3541
-17.1153
23.0647
8.40468
22.4202
-16.6297
8.19602
-13.9866
5.97444
-8.41919
-14.3798
-8.62524
23.1452
5.82516
8.17578
-17.1542
-21.2263
2.71401
12.742
5.71627
2.67874
12.4931
2.37399
11.1698
12.9788
2.76895
-8.29332
-15.6824
2.74935
-14.9365
12.3594
-8.2808
-7.5266
0.110691
16.2638
-8.84804
0.218088
-7.80379
16.3751
-8.78971
-8.82799
0.117845
-7.86138
16.5714
15.9996
0.19754
-7.67001
-8.52723
8.37491
-7.35584
-8.54585
-7.43253
16.0253
8.48755
0.156131
-7.77301
9.46972
-24.2142
5.25855
9.48607
5.53133
-25.2595
9.97626
9.75196
-24.4019
9.53152
5.34813
9.52231
9.7156
-24.9401
9.7802
5.44434
18.8923
14.7806
-24.2031
14.9199
9.50374
19.1708
5.32543
9.68885
0.3807
9.54196
10.5296
-20.4522
-20.0792
10.0191
-0.167394
10.2277
9.99793
-0.0803486
10.3071
-20.2245
10.0856
10.0295
-0.0906529
-20.0243
10.2354
-20.009
10.1544
-20.1703
10.3265
10.1451
-20.0684
-0.0272273
9.59984
9.07167
-9.12951
-9.86522
9.27346
10.1613
-9.56937
-10.2558
10.3698
9.90509
10.3236
9.99144
-10.2855
20.0275
-0.146413
-10.2812
-0.038835
10.2012
20.3316
10.0371
5.92048
-2.40494
-17.5874
14.0718
12.8076
-1.78324
5.60672
-16.6312
-1.81346
5.58849
-16.3558
12.5807
-16.8072
-2.16504
5.80341
13.1689
-11.2654
19.296
-2.11027
18.6001
-17.058
-11.1041
13.5929
5.68254
-22.6649
23.5075
-1.93006
1.08743
23.2733
-1.897
-22.5675
1.19118
-1.40139
21.9893
-21.6083
1.02049
0.830866
20.6793
-1.26165
-20.2485
-21.271
0.599611
-1.99346
0.586434
1.41582
-20.4821
21.9126
-21.297
-2.0035
-15.7306
3.73672
13.9971
15.2922
-16.7486
3.61311
-2.15667
-16.7768
3.66293
-2.1636
15.2775
3.46267
-15.9446
-2.0385
14.5204
1.45164
12.7231
-16.1784
13.1341
3.60977
1.55015
14.6356
-2.09249
0.0759595
11.2132
-0.19543
-11.0938
-11.5114
11.5725
-0.14108
0.0800014
11.4738
-0.00627847
-11.5515
0.0839522
0.0355769
11.6376
-11.7747
0.101452
-0.0715418
-11.3635
11.5111
-11.43
-0.152999
0.0701113
-11.398
0.113879
1.89005
8.12663
13.6794
-23.6961
7.44146
12.9411
-22.1611
1.77852
13.4882
7.37039
-22.699
1.84043
-23.0492
7.61675
13.6031
1.82939
-21.5159
9.58252
13.8236
9.47565
-23.5502
-21.1199
7.65326
1.84397
-11.3157
-11.809
7.39412
15.7334
-12.2283
-10.9496
7.44448
8.69177
-13.5497
-11.8907
-13.1255
-11.1856
8.36648
-24.5248
4.7344
8.47472
4.64936
-13.4408
-24.5695
-11.2284
-20.2711
19.6815
1.70353
-1.11385
1.73584
18.7093
-0.984135
-19.4609
20.0146
1.77596
-1.18815
-20.6023
-1.23361
20.1254
1.82779
-20.7196
-21.4252
-18.6093
19.7635
-18.5184
-1.17085
-21.6141
1.77138
-20.1179
-0.247688
2.18802
-20.3527
18.4125
2.05947
-18.8062
-0.2777
17.0243
18.7907
2.14932
-20.7705
-0.169645
-20.7163
2.15535
-0.197597
18.7585
-20.4199
1.96276
18.2094
1.90281
-20.2633
-20.9295
2.17585
-0.236014
0.828081
-9.47589
12.3843
-10.3514
0.722296
13.2922
13.2253
-10.2888
0.67676
-3.67858
-10.0618
0.74604
12.994
-2.91597
-9.20667
12.9504
-9.65756
-2.88523
-10.0002
0.6825
11.2009
19.6091
-19.5967
-11.5678
20.7115
-20.618
11.4743
-20.4606
20.5525
11.4807
20.7466
-20.7269
11.6178
31.7133
-0.169658
-20.3428
-0.147108
20.2926
32.0881
11.4804
4.7473
1.64366
17.1165
1.91925
4.35605
15.714
-21.475
1.80507
4.28624
15.3837
14.7739
1.87978
4.02557
20.3363
6.32365
6.41227
15.8433
19.2991
1.7985
4.23636
27.1488
-11.0357
-14.5621
-1.55094
-1.57306
25.9747
-10.3913
-14.0104
-11.2344
27.8279
-14.9771
-1.61652
-14.4641
27.0442
-11.0396
-1.54044
12.5901
25.5136
-10.9548
25.979
-14.962
12.583
-1.53362
27.3277
12.7113
-12.5947
0.185552
-0.30209
-12.6106
0.217434
-0.239162
12.6325
-0.0372664
-12.1829
0.096623
12.1235
-0.0736401
-12.3327
0.0635067
12.3429
12.5213
0.026845
0.163223
0.00375855
-0.0930634
12.3742
-12.4209
12.3407
-26.9881
11.1153
14.326
1.54685
14.1994
-26.7249
10.9717
1.55384
1.59148
-28.0199
11.1434
15.2851
10.874
-26.1664
13.7578
1.53462
-15.9473
-12.6464
1.60557
-12.871
11.1232
-16.092
14.3196
-27.3715
0.116914
9.23664
8.82744
-18.181
9.62468
9.96043
-19.6655
-19.4134
9.75143
9.49459
9.84774
9.656
-19.5944
9.67602
9.27112
-18.8302
9.62328
9.67744
9.81735
9.30156
0.161282
-12.1941
11.8342
12.5396
0.195032
-12.8275
-12.8048
0.173176
12.5442
0.137938
0.157971
-12.9199
12.6241
0.276744
12.6416
-12.7568
12.6972
0.284598
12.4951
0.176999
4.14802
21.0061
-17.0275
-16.8247
3.87215
20.5695
20.3516
3.84595
-16.8271
-7.66
3.94525
20.9933
-17.2784
-3.72998
-12.869
20.7472
-12.9014
-3.61109
-16.9179
3.83912
2.42991
3.42679
9.05804
-14.9147
10.3383
3.49881
-15.6204
2.86989
9.20566
-14.4805
-15.8766
3.26839
10.4432
-13.5364
12.656
3.31012
12.5254
-15.7236
-13.2851
10.0644
0.656152
-9.01668
-7.51939
15.8799
15.7733
-8.82097
-7.57805
0.625819
-8.62215
-7.6069
0.599905
15.6291
-7.76333
-8.91322
0.612246
16.0643
-7.06137
16.6812
-8.96364
16.3026
-7.5907
-7.07732
15.9952
0.603175
23.3055
-8.32637
-9.15641
-5.82268
-8.3883
24.3645
-9.46253
-6.51376
-7.62658
-8.83426
25.4081
-8.94727
-7.77864
-8.50216
22.1711
-5.89023
14.7349
14.2227
-5.65214
15.4504
-9.10377
15.2435
-8.79946
23.0673
3.58143
-2.09688
-11.1808
9.69622
-10.7829
4.2704
-3.0143
9.52691
-2.39593
3.3405
-10.2375
9.29296
9.68089
4.68392
-3.31856
-11.0461
13.4844
-7.1703
-2.7326
-7.0486
9.75007
13.4604
-10.9498
4.01594
-27.4235
10.977
1.40442
15.0421
11.1197
1.42076
15.2875
1.32578
10.5576
14.0913
14.8153
10.7926
1.43626
-12.5505
-16.2837
1.41078
-16.3661
14.9353
-12.2874
10.819
-4.85138
7.52353
-10.524
7.85177
-11.6326
8.36573
-5.30768
8.57449
8.35984
-5.28804
-11.4515
8.37962
8.1454
8.09584
-5.15251
-11.0887
3.07388
-16.0568
8.1316
-16.8234
8.26463
3.15051
-11.062
-5.31306
17.0102
-9.19365
-2.83809
-4.9785
-5.02149
-9.23989
-2.85391
-2.97838
-9.32579
-5.1271
-8.9781
-2.76282
-4.88888
7.90127
11.9148
-2.80594
12.1805
-9.30073
7.95213
-5.01548
-23.5993
-0.166384
0.0594993
23.7063
0.0425893
-0.0248797
22.8639
23.7781
0.0376142
0.0128978
-0.0119369
0.00571574
23.0709
-23.5072
-23.397
23.3048
-23.3947
-0.0698941
-23.5286
0.119559
3.02918
10.0585
-9.1977
-3.8902
11.0873
2.19173
-9.78835
-3.49078
-4.81268
2.35095
10.8231
-8.36139
-9.14743
1.82779
10.4685
-3.14923
-6.91869
13.6687
-3.72093
13.6424
-9.47389
-6.05182
10.5728
2.77783
21.2111
-21.6582
-1.44994
-21.4243
21.1658
-1.67151
1.41305
19.5373
-19.6733
-1.27705
-1.07044
18.9851
-19.1763
19.5764
-0.358697
-0.327508
-1.52042
19.0351
-20.4642
20.1206
4.83687
-14.0048
-3.45627
4.49796
-13.2246
12.3423
4.47958
-13.3231
-13.7308
4.66651
-9.07657
1.49242
1.10753
-13.6404
-8.92832
4.52152
-9.38186
19.1357
6.66469
-16.4185
6.08797
18.8529
-14.6386
-10.3024
18.903
6.20303
-15.8836
-9.22258
-16.159
20.0419
6.63487
-10.5179
-24.517
-3.38518
18.5203
-3.44163
-14.9874
-25.8436
6.29928
-10.3823
-22.7646
21.4584
-14.3737
15.68
21.8642
-22.8258
-14.8265
15.7881
15.9201
20.624
-21.7176
-14.8264
-15.3226
21.2963
-22.2739
16.3004
-38.6627
-0.841075
16.7392
-0.851354
-15.9471
-37.4445
21.2809
-22.3757
1.37591
-2.65126
-19.7722
21.0475
21.2024
-2.75886
-19.7848
1.34114
-2.71569
-18.4407
1.11578
20.0406
-19.7993
-2.7427
1.32366
21.2183
-18.4087
22.5432
-2.75858
22.5748
-19.7811
-18.3685
21.1123
1.49065
0.158831
0.145438
21.1541
20.4024
0.00645419
0.215083
-20.7294
0.0361191
20.5125
0.180725
0.00268666
21.1234
0.170069
0.214863
21.2248
20.6416
-0.0243538
0.260763
20.9668
0.172936
11.7114
-2.43239
-5.43308
-2.45056
11.8914
-5.49553
-5.42423
-2.4825
11.7788
-3.75244
-2.34081
11.2806
-5.18741
7.85604
9.16266
-5.30726
9.24458
7.82615
-2.41596
11.6465
3.67784
-2.0246
18.5326
-20.1859
-1.94711
3.66662
20.0217
-21.7411
-19.1195
3.15162
-1.39288
17.3608
17.4782
2.99759
-1.19101
-19.2849
22.6137
1.63149
-20.5675
1.67431
18.9923
20.6193
-1.50967
3.17414
1.27757
9.53767
-5.22675
-5.36389
1.24695
9.92036
9.35538
1.28887
-5.03755
-5.26122
1.22461
8.88658
-4.85007
-4.30222
-3.85872
9.43848
-3.98358
-4.15308
-4.96689
1.21869
25.1453
-6.69614
-13.4955
-4.95341
-2.85805
-8.17947
23.613
-12.5754
-13.5306
-7.23476
24.9297
-4.16436
-8.92598
25.8326
-14.2655
-2.64094
16.8215
21.9278
-13.6041
21.6366
-7.67316
16.9571
-3.95526
25.0631
-8.36413
-9.91204
9.25951
9.13484
-9.92618
-8.27278
9.06418
9.81092
-10.3393
-8.29259
-10.3696
-8.3912
9.84768
-18.6613
0.524323
9.77285
0.530474
-10.0569
-18.8089
-8.46752
3.1106
-11.1282
-8.08285
16.1004
-12.2663
-8.24389
17.2742
3.236
17.627
-12.4266
-8.48535
3.28486
-8.21731
-11.7089
16.7386
3.18744
-5.29599
-8.66906
17.0755
-9.10682
-8.45563
-5.24514
-11.6414
3.27503
19.7086
0.0726344
-0.17215
0.0582922
20.6639
-0.0107129
-19.8943
19.7555
0.104027
0.0348072
-0.0190679
20.5792
-0.00762888
19.9998
20.0016
20.0286
0.0294183
19.9708
0.0117575
20.1052
4.54888
-20.1012
4.42399
5.01195
-22.4433
5.00476
11.9078
-21.7571
4.95453
4.89483
-21.3575
4.85032
4.7982
-16.5552
9.46274
9.78359
-21.3268
-16.8082
4.91338
4.88316
-0.0622664
15.5253
-7.93953
-8.13791
16.7634
-8.51492
-9.32706
17.8106
17.1741
-8.88069
17.0416
-8.00585
-9.09805
-8.12885
17.0325
17.2998
2.69195
-16.9284
6.71702
-16.9207
2.58888
6.72491
6.74989
-16.9027
2.57477
7.21384
-15.9886
2.42211
6.35254
10.2345
-14.3106
6.76802
-14.2768
10.0342
-17.1309
2.50724
-0.212792
-13.0049
19.5782
-6.36062
20.7183
-13.4702
-6.96165
-0.286393
-13.8021
20.8628
-6.81214
-0.248473
-6.88529
-13.8627
21.0551
-0.306992
-6.95942
20.1366
-13.3899
20.3339
-6.57495
-6.84755
20.0988
-0.31579
-6.89931
-6.81497
-9.11145
-8.81505
-6.49941
-6.40309
-6.78671
-8.8432
-6.64387
22.3543
-6.80134
-8.87098
-6.68194
15.7128
-15.8118
-6.80021
-15.4778
15.6528
-9.11022
-6.61176
14.7234
-14.9211
0.197799
-14.5916
0.217922
0.125002
-14.9515
-0.00170963
-14.8092
-0.0154532
14.7773
-0.171144
0.117261
0.185709
15.6364
-15.8092
-19.4409
4.89016
-1.88865
4.79478
5.22208
16.0818
4.78306
-3.22895
-21.0474
4.83537
-22.1756
-3.16703
11.4479
-9.4722
-10.302
-10.2816
11.6663
-9.8869
-9.70151
12.0232
-11.156
8.785
12.9078
-10.4324
-11.2605
20.5736
1.46984
-10.5956
1.49261
19.6753
-9.42042
11.4664
-19.6178
19.6943
0.0355086
-0.112021
19.8982
-19.6518
-0.17956
-0.0668045
0.0160723
-20.766
20.8183
-0.0682823
-0.0428562
-20.5879
20.5957
0.0351124
-19.6686
0.0605755
-0.00976064
0.0442037
0.185344
-20.1747
20.1924
-20.1144
23.8472
-1.65701
-23.8053
23.1714
-1.77245
-2.62034
24.8148
2.90583
21.25
-1.98475
25.9754
-0.461866
-1.66634
-0.442793
25.5112
22.4481
-9.42636
-0.282594
9.70894
9.27823
-0.20653
-0.0314756
9.30497
0.00584757
-0.0294739
10.3934
-9.17356
0.0172662
-0.270044
0.10468
-10.2744
10.2975
-20.5668
19.8691
1.79636
-1.09867
1.88356
19.0579
-19.9851
-0.956409
19.886
1.73872
-20.4531
-1.17146
-1.13838
19.987
1.88496
-20.7335
-21.6999
-18.7826
19.9157
-18.6919
-1.12443
-21.7587
1.83772
-20.5646
-10.5612
10.4573
-0.178699
10.7447
-0.421509
-0.0134162
10.2117
0.0327456
10.3563
-0.0819594
-10.4951
0.0128649
-0.0789023
-0.0205077
-10.2926
10.3383
2.2343
-10.8138
10.7675
11.5468
-11.7644
2.36679
-2.26808
-11.2622
2.339
11.1913
-11.6767
2.41532
11.4167
-9.47054
13.8806
14.2259
-12.1497
-9.48024
11.6842
2.47759
-2.16305
-6.15904
10.673
-6.54425
9.81745
-1.44553
10.8362
-6.93113
-1.7134
-2.02432
-6.39697
10.7076
-2.28644
-4.43544
-8.35494
10.6272
-8.20204
-4.37736
-6.00196
-1.74329
-1.39506
0.723776
-18.6037
-1.27703
1.07422
19.33
-1.53704
0.916161
0.735745
-1.3809
-0.575058
-21.0834
-20.16
0.981129
-0.584185
-1.41432
-2.74425
-11.2664
11.3594
2.75468
-11.6053
-2.66334
11.5139
11.9786
-12.0191
-2.71837
-12.066
-2.69094
12.0143
-15.1146
0.0821859
12.2882
0.074997
-12.4349
-14.7424
-2.68874
-18.9547
-0.293178
19.4873
-0.239409
19.5212
-0.156857
-19.1147
-0.249628
-0.0618181
-0.462204
19.1868
-18.6629
-0.40147
19.5571
-18.9321
-0.223676
-19.16
0.486093
-0.28093
0.534256
-0.17311
-19.0325
19.1169
-18.5601
-7.06153
-13.5125
12.4913
-14.8774
-7.09976
13.7332
7.82097
-6.71656
-13.9121
12.8074
13.9675
-7.32591
-15.1269
6.75811
-22.2752
-21.5937
13.4744
6.64229
-14.9501
-7.13039
26.7085
-21.642
0.873126
-5.93965
-6.45825
-22.6618
1.10013
1.02137
-21.7006
-6.0457
-21.2544
0.925362
-5.83739
5.23627
20.5135
0.958859
21.1887
-22.4107
5.16141
-5.90232
17.1967
12.7645
-8.95507
-20.8128
12.1454
17.4888
-8.82123
-9.67162
13.4216
16.8196
13.4225
17.3657
-9.79492
30.6628
-3.63192
-9.83404
-3.67045
13.5204
30.5378
17.1958
7.87751
-4.76091
-8.37196
-4.79711
5.27612
-4.73863
-4.62655
3.08208
-0.517641
-0.534673
-4.75522
3.03157
-11.3168
-10.4496
6.70167
-10.7225
-10.9002
-10.8214
-10.4872
15.5182
-11.2301
-11.0895
4.65024
-4.45365
-11.5134
-4.45732
4.26428
-11.0145
-1.22079
-16.6286
11.1328
12.2388
-18.1594
-1.40546
-17.8274
-1.34673
12.0744
6.68413
-16.5284
-1.28885
11.133
5.7132
10.1289
-17.0629
10.8216
5.64013
11.1728
-1.3656
-0.0196977
0.123464
20.7586
0.0340166
-0.128614
-20.6545
0.0206526
-0.131998
-0.0458709
0.0372007
-0.0363872
20.122
20.7407
-0.0184438
-0.038252
0.0479091
9.24361
-0.148565
9.35426
-9.33959
9.55709
0.0334072
10.4733
9.23851
10.0695
9.08996
10.2662
10.0166
-2.29025
-9.34283
-10.9344
21.0917
-7.9348
-2.1122
-11.0447
-8.29484
-2.15039
-11.163
-10.4456
-7.73873
-2.06409
-13.1592
19.0011
-8.13206
19.037
-11.1044
-12.7415
-1.99931
-10.0758
-19.9319
19.6165
20.4411
-21.0752
-10.4017
10.9731
-21.1542
-10.353
20.5341
-21.2004
-10.4926
20.6536
-31.1334
10.1028
10.0995
-20.7917
-31.4743
20.3767
-10.4017
-21.8778
21.5067
0.427238
-0.0560725
22.0856
-0.148347
-21.8593
-0.077855
-0.0535405
21.1671
0.0319136
-21.1452
0.079154
21.4458
-21.4452
-0.0797848
-21.9173
0.0307804
0.00897131
-0.0149174
0.183216
-21.1749
21.2849
-21.2434
-13.3695
12.4315
-12.0669
12.466
12.6084
-13.5327
-11.5419
14.781
-14.6229
-13.6283
-13.9202
15.019
-14.9616
-26.1553
-0.968896
13.7546
-0.993541
-12.6958
-28.279
-14.4915
-0.667374
8.0371
-7.83199
-7.99684
-0.476283
8.17994
0.202437
-0.38137
8.17458
-7.99559
8.28636
-0.315684
-8.12754
7.65432
-8.49486
-8.61223
8.26971
7.96975
-8.17821
-0.44001
-19.2725
19.308
-0.0714025
0.0359349
19.4926
-0.00284607
0.0391891
-0.0588158
20.3947
0.0345249
0.0324292
20.5282
-0.0784824
-19.3235
0.0712468
-0.0201861
0.00640054
0.162761
-19.8299
19.9336
21.2449
-12.2338
8.31201
-17.3231
-12.6813
21.0963
8.71703
-17.132
-17.0785
-11.8481
20.8706
8.05592
8.6147
-12.3734
20.7217
-16.963
30.0324
8.49716
-17.2846
8.53601
8.81501
29.6399
-12.528
21.0974
6.04548
19.7146
-22.587
-3.17314
20.222
-23.2688
6.11165
-3.06497
-2.99763
19.1941
-22.0359
5.83938
-23.3417
20.4753
6.0947
-3.22859
-17.1007
26.3532
-3.20715
25.9197
-22.7985
-16.9499
19.9614
5.97216
21.9873
-20.9975
-2.00981
1.02012
-1.98805
-20.2387
21.26
0.966831
-20.9633
-2.08117
21.9626
1.08183
1.09927
-21.0407
-1.93426
21.8757
23.0787
19.9676
-21.0591
19.8612
1.22944
23.0431
-1.97627
21.9411
-20.2778
-2.12137
21.3782
1.02098
21.468
-20.3987
-2.02724
0.958006
-2.05478
-21.2851
22.1962
1.14363
0.981701
-20.072
-2.03843
21.1287
-19.3254
1.00543
-1.95793
1.02528
1.1173
-19.6984
21.6855
-20.7279
-16.6529
0.049077
-0.025075
16.5438
0.194502
-16.5383
-0.199951
-0.0815071
0.203983
-18.2819
0.121244
-16.5605
-0.0891733
-16.4667
-0.0858614
-0.100441
-0.0869218
0.164074
-17.0275
-17.196
16.9934
10.5827
-20.4977
-7.0789
-20.2731
10.1496
-7.3328
-8.42468
11.844
-21.9962
11.7837
-21.2986
-8.41981
28.224
-3.38174
-7.8491
-3.36471
11.3155
29.7988
-21.3968
0.100778
13.3252
-13.6214
-14.6665
14.5615
0.280587
14.2963
-14.4314
14.3428
-14.3426
14.4547
-14.5069
-14.7609
14.5492
14.5047
-14.6688
-2.29505
18.3871
7.07929
-22.7724
-2.36841
18.7665
6.37419
7.15631
-2.55202
20.2105
17.9131
-2.45447
5.79128
15.781
-24.4612
6.3851
-25.5374
18.5459
15.8999
-2.48121
0.260233
-0.453426
22.8034
-22.6101
-0.308383
22.9141
-22.987
-23.0113
-0.425172
22.9602
23.0339
-0.410229
-22.9393
23.5432
-0.0227765
-23.2601
0.0344122
23.2005
23.4169
-0.405822
-10.9096
-19.7809
20.1282
-20.2499
-11.4297
11.7631
-20.8611
-11.5199
-20.9179
-11.5836
-31.2968
8.98917
9.03207
-20.2007
-32.2715
-11.4763
6.52245
-21.8802
9.01107
6.34683
6.6193
-22.0406
8.84893
6.57233
8.71827
-21.4974
6.41915
6.36007
-22.2487
8.93287
6.59947
6.71641
-15.7768
13.3053
8.99393
13.4294
-22.5869
-15.5646
6.62133
6.58309
23.5014
-13.2703
9.48341
9.41791
23.4278
-13.6517
-18.6303
22.787
-12.3687
8.21193
-14.2201
24.5423
10.1529
9.75608
33.7066
32.2051
-13.0312
9.75206
9.73442
23.3268
29.1586
-5.59379
-13.5063
-11.9545
28.8218
-6.04426
-11.6216
30.8824
-4.36322
-14.8978
-6.64413
28.0898
-10.9773
22.608
17.1233
16.8734
-6.22008
24.4961
-14.0171
29.7479
21.7241
15.2184
-15.7883
-15.839
14.8542
-21.4607
15.1116
-15.5311
15.4898
-16.4069
36.781
5.90987
5.74767
15.1943
38.2999
-16.9002
0.863711
21.1365
-3.07255
-18.9276
-3.23176
0.875228
22.2543
-19.8977
-18.6227
1.02615
20.8395
-3.24298
20.8395
0.898009
-3.13132
-18.6061
22.5309
-2.22674
-19.4404
-2.18131
21.4805
21.8998
-3.2871
1.09576
-0.181628
-6.91118
-2.36977
10.1393
-8.26567
0.445508
-2.31908
-1.83379
-7.17627
-0.146286
-7.25773
0.0185321
-1.70816
-7.60412
8.83521
-1.41275
9.42555
-6.89032
-7.52628
0.065468
-6.46212
-1.99479
15.0322
-6.57536
-7.52505
-3.30322
18.2061
-7.37788
-3.90609
18.8743
-7.75089
-7.21745
18.2054
-3.6327
-7.60589
-6.96686
10.902
-13.9788
-3.38546
-15.0556
18.4325
11.129
-6.90248
-7.83266
-8.65554
-1.50411
10.1596
10.2279
-8.91148
-1.31641
-1.40887
-8.56879
9.97769
0.0213668
-8.70606
-1.54558
10.2302
-8.45599
1.54702
-1.74656
1.77193
-9.4586
11.027
-9.09554
5.35646
-4.69387
21.1982
-21.8608
-21.9991
-5.4423
21.716
5.72548
-5.24879
21.7085
5.54264
-22.0022
21.8151
-5.971
6.10902
-21.953
27.3975
-16.4256
-5.61524
-16.3973
21.7956
27.3013
-21.9118
5.6553
0.615641
-11.6868
3.27537
7.79579
-11.6183
0.654041
3.22082
7.74343
7.73688
-11.5711
0.611792
3.22252
3.21256
-11.4497
0.622041
7.6151
3.88024
-11.0091
7.74445
-10.9731
3.23509
3.8485
-11.645
0.612255
9.92039
-8.20664
-1.71371
-1.61513
-8.09694
9.7121
-8.09865
-1.52078
9.61947
0.0198356
-8.96595
-1.44967
10.3959
9.75204
8.6586
-8.49022
8.13691
10.4652
-1.78669
10.5034
-9.62464
-17.196
9.8922
9.73406
-17.6931
-8.9436
16.7653
-17.4741
-9.09317
9.80208
-16.4612
-8.63268
9.10523
-27.1228
0.367233
0.196211
-17.5849
-25.6183
9.52438
-8.65681
-0.264608
-13.248
-13.863
14.38
-14.1855
0.0232034
-14.9461
-0.439414
-14.7752
-14.3024
-0.241729
-14.5103
21.2274
-1.02131
0.612262
-20.6423
-1.13502
0.623294
-1.04962
0.812023
0.636335
-1.11575
21.8912
0.49442
-1.15812
0.518094
0.730794
21.3232
-7.09413
-10.608
7.35524
10.3468
7.43717
-10.2419
-7.33813
10.1427
-10.6169
-7.19534
7.35638
10.4558
10.2342
-10.4327
-7.00986
7.20836
3.14454
0.322545
-10.5614
0.191731
10.3899
3.28288
7.27375
-7.14231
11.483
-1.58332
-9.89974
-9.70908
-1.55735
-1.59231
-10.013
-0.0146349
-1.67986
-10.3247
11.4419
1.70331
-1.66226
1.73276
12.2945
-10.6058
2.71746
-19.4443
-1.04156
17.7684
18.9406
-20.7685
2.71174
-0.883758
-0.825102
-20.5879
2.67122
18.7418
-20.9566
2.67814
-0.879489
19.158
-17.9318
21.5383
-0.889001
21.5887
-20.5798
-18.0885
18.6702
2.67504
-4.24341
9.19504
-6.94651
2.97125
-4.79402
10.1177
-8.29505
-8.69368
-5.31154
10.702
10.5904
-5.06866
-9.15451
5.28243
-1.44289
-8.08316
-1.85066
10.1042
5.76204
-4.78235
9.72847
-3.96002
-4.20374
10.1172
-1.30761
9.90841
-4.10283
-4.09827
8.95649
-3.6337
5.39925
5.54786
5.717
5.23898
-3.78941
9.64837
-1.78028
-9.48199
-9.11029
10.9759
-9.19992
-0.0486777
-9.88792
-1.79864
-12.1312
-10.9089
-1.8384
-10.3415
10.0174
5.8676
5.2822
-21.2483
5.85502
9.98931
5.40398
5.84206
10.0687
5.59595
5.36334
5.90836
10.1741
15.3153
-11.1542
5.85637
-11.2859
5.35298
15.4941
10.0502
-19.3984
3.71139
5.079
3.7337
-19.1148
5.13921
5.01815
3.67374
-19.1246
10.6012
3.74468
-19.4124
5.06652
-8.78886
-15.6706
5.06104
-15.6166
-8.78528
3.71588
-19.3837
-11.5599
14.6345
10.156
-13.2306
10.0049
14.4067
-13.2682
-13.8728
15.0246
9.9635
14.9952
9.97714
-14.0005
4.21643
-1.11032
-14.666
-1.16866
15.39
3.91832
9.96658
8.96511
3.43832
6.73233
-18.9138
3.35553
8.84639
6.71185
3.31299
8.87716
6.66276
6.98947
3.53394
9.51846
15.5568
-9.95428
3.36256
-10.0028
6.64588
15.5555
8.86561
0.883202
-13.5316
5.92246
6.72581
6.09368
0.871605
-14.5123
7.54691
8.58774
1.46088
-16.0982
6.04951
-15.6988
1.24383
6.03758
8.41728
-14.1369
7.05749
7.9626
7.19958
-15.2429
-14.5496
5.9082
1.2377
-3.1981
13.7572
-3.8944
13.2511
-3.68536
-3.36266
-6.57834
14.0462
-3.99383
-3.47403
-3.62715
13.6258
-3.36381
-6.90924
10.0104
10.1434
-3.80156
-6.8582
13.2414
-3.29316
-1.08742
0.03604
-7.51739
-7.40148
-0.27839
-0.312605
-7.72365
8.72836
-0.519257
-7.3111
7.66916
-8.53712
-0.21944
-8.82786
8.04471
-7.85346
-7.03691
-23.9641
8.18653
-21.8785
-5.98134
19.6059
-21.2207
-6.32005
-20.8943
-6.02071
-29.16
1.65897
1.61534
-22.5888
-27.3673
-6.14606
-20.2332
-6.87485
-7.46473
-20.5676
17.3501
-20.4293
-6.8469
10.0039
-20.0767
-7.40128
-10.2324
-27.5857
-27.754
-10.2053
-7.37645
-20.6092
10.6742
-0.0916782
-0.324009
-10.2107
-0.412843
-0.0330653
-0.273841
10.927
11.0626
10.603
11.2273
-0.197811
1.92514
-18.5985
-0.623928
17.2974
17.5041
-18.7098
-0.646957
1.85276
-18.801
-0.597008
1.81449
17.5836
-0.701392
-18.8184
1.79782
17.7219
1.33174
19.8583
-19.2648
19.4254
-0.589546
1.21681
17.9402
1.84118
-3.45111
-9.44934
4.60447
-9.36085
-10.1378
9.26197
-10.549
5.1126
1.2483
-9.81198
1.22685
4.89505
26.5407
-18.0948
-11.0263
2.58031
-10.9619
-17.3506
25.8298
2.48255
2.26928
-15.8008
23.9841
-10.4526
-17.1406
26.2409
-11.675
2.57468
8.78772
15.0828
2.67013
14.2695
-16.4437
8.75556
-10.8134
25.2943
-0.0382463
7.32041
-17.5034
10.2212
-17.7189
-0.0769023
7.42213
10.3737
7.47275
-0.0585226
-17.8188
10.4046
10.1845
-0.0886403
7.21171
-17.3075
10.1963
-17.5336
7.29914
-17.808
10.2853
10.2736
-17.6227
-0.0616395
23.6083
0.159177
-23.3354
-0.432067
-0.17016
0.160486
-25.2498
-24.1974
0.24214
-0.25887
0.227742
-24.9083
-0.259615
24.3587
23.885
-24.6355
23.988
0.200544
24.4126
-0.299825
1.6362
-0.925173
20.3003
-0.815676
-20.8917
-0.867726
-0.774367
0.802988
22.6289
21.883
-0.779643
0.795432
1.46072
-0.722957
21.8379
-0.899936
-22.1261
-0.663176
-0.778127
0.627938
22.3132
23.0655
-0.599687
0.807172
-7.61761
-8.41015
5.67477
5.79382
-8.53061
-7.66488
10.3029
-8.31143
-7.53994
5.54847
-8.62192
-7.72219
5.85148
-16.2035
-1.8158
-1.8326
-8.57703
-16.1914
5.75369
-7.72106
-9.24245
1.24648
-0.481245
8.4772
1.40132
-9.26507
-0.640264
8.50402
-0.541052
1.27638
-9.14586
8.41051
8.41947
1.33171
-9.26892
-0.48237
-0.802943
-7.92656
-0.512941
-7.85089
8.44923
-0.813237
1.30613
-9.20521
-16.1205
16.5478
16.268
-16.4163
-0.0654
-15.673
15.7385
-0.0208224
-16.565
16.6179
-15.9461
0.00886232
0.321926
-17.0805
17.0686
-16.824
0.1069
20.4618
-18.4013
-2.16741
-2.03837
19.2464
-17.3596
0.151635
18.7841
-16.8718
0.156729
-2.06898
-16.878
18.798
0.168821
-2.08878
-17.3406
-1.84768
19.2952
-1.91228
-17.4667
-16.7134
-2.0123
0.158381
11.6972
9.80425
-28.103
6.60161
-27.9786
9.76088
6.53094
6.59187
9.69302
-27.8559
9.60996
-27.5157
6.45604
21.437
-16.2844
6.5446
-16.2808
9.73925
21.3339
-28.0084
-1.53574
0.816932
-19.1885
-1.54961
1.29379
19.79
-1.61362
0.881558
0.879064
-1.66059
-0.640741
-21.4748
-20.8143
0.985093
-0.679996
-1.70434
-9.90934
3.52801
7.03536
-0.56599
3.43285
6.66467
7.01981
3.56827
3.56746
6.83477
-6.31407
-10.4981
6.90283
-10.3904
3.5103
-6.3183
8.107
-9.12828
1.06345
-9.37491
-9.54516
-0.00570197
-9.64062
8.43074
9.79179
-10.1155
9.4942
8.62798
21.2126
-9.72772
2.5036
-13.9884
-13.9566
-9.70981
2.52133
2.53307
-9.81742
-14.5749
-9.77671
2.5346
-14.2031
11.4667
7.21197
2.534
7.18807
-9.6779
11.5222
-14.0869
0.0105412
-20.5019
3.69523
16.7962
-19.818
3.78171
-0.0113717
16.0478
16.0034
-19.8154
3.83967
-0.027561
3.83334
-20.2121
-0.0460036
16.4248
3.73777
-20.3564
16.6292
-19.8851
3.8049
3.85278
-20.3758
-0.0289605
12.2082
4.42029
-16.6285
4.00132
-16.2352
-16.0366
4.18851
-0.00657147
4.53085
-16.8977
12.026
17.2096
-17.0275
16.0273
12.5374
4.66563
-6.66328
4.31578
-19.0401
21.3876
-18.8522
4.25278
-6.55863
21.158
4.06742
-6.42755
-17.5257
19.8859
21.3837
4.33852
-6.61389
-19.1083
14.7196
-25.7076
4.32478
-25.0766
20.944
14.5471
-18.8711
-6.46203
-2.15955
-7.61224
-11.4489
-11.5969
-7.69011
-2.5915
-9.04205
-12.0907
-2.8313
23.1182
-8.42379
-12.1437
-2.55078
19.5524
-14.0404
-7.67158
-14.6332
21.0815
-12.0036
-2.59373
9.88741
-10.9183
-14.642
-10.9633
-15.2704
16.4751
-10.4917
-15.711
-15.6983
-10.5764
-6.09263
-0.843904
-0.833313
-16.2226
-5.96386
-10.5783
-3.97942
-16.0504
-15.659
-3.76051
8.90342
-15.5859
-3.80913
10.5081
-15.5697
-3.80942
6.82188
-19.9114
-19.4154
6.72334
-16.1267
-3.78865
-16.4739
5.25547
-4.58247
5.22057
-4.44117
14.5401
4.98147
-4.48952
-4.61422
5.46973
-21.4487
-11.469
-11.5475
-4.68086
-21.4251
5.34184
-7.29077
10.6713
-9.24346
5.86299
6.02081
9.86914
-8.9165
-6.97349
-9.64104
10.659
-6.8858
5.86787
10.7033
-9.71793
-6.8634
5.87804
4.0229
-1.00832
-10.3054
-1.01746
11.0612
3.72397
5.97091
-6.93455
15.3032
1.0137
-1.03185
-15.4126
0.891311
-0.664311
15.1856
1.0522
-0.817664
14.0915
-0.737222
0.817414
13.6776
14.3281
-0.220173
1.1953
-0.236681
-0.847847
13.3622
14.1777
-29.5622
27.7378
10.1234
-8.2989
29.0328
10.6936
-8.84395
-8.31197
27.9477
9.18599
9.84447
26.4693
-8.224
-19.3795
-1.28582
-8.89691
-1.21951
10.8728
-20.2164
28.775
2.57793
-23.4863
18.8114
2.64351
-22.0944
17.1105
2.3404
-23.625
18.1613
2.44944
18.3424
-23.9919
2.33096
20.875
5.09213
-23.3892
5.40649
18.1121
20.7019
2.48341
20.3331
-12.6742
11.9192
-14.7611
13.8668
-19.4145
-12.8837
12.197
13.7846
-15.1728
34.0627
6.36924
6.37185
12.9297
34.3695
-14.2156
20.1213
0.670719
-0.397243
-20.2481
0.565258
20.0974
-0.41452
0.59095
19.0507
-0.333604
-0.378969
0.668163
20.239
19.6916
-0.253592
0.683288
-0.176413
-0.380047
19.3011
19.7157
5.83993
-7.52355
3.09287
-1.40915
-2.19054
-7.37098
3.4025
2.99792
-8.45947
-1.4696
-6.9739
2.72962
-2.15274
-1.14501
3.96865
3.01623
3.91422
-7.24977
-0.910173
-2.09515
16.1571
-1.12213
1.33993
-16.3402
16.062
-1.07151
1.34954
1.2788
15.9626
-0.977686
-0.949702
16.1628
1.35821
15.095
-0.259334
1.32116
-0.235909
-1.00955
14.8162
15.859
16.6082
8.22771
-1.40817
-23.2477
8.18805
16.4173
-1.35774
8.12248
15.8761
-1.21169
-1.36941
8.5353
17.3763
15.1505
-6.76302
8.22064
-6.76683
-1.33047
15.1943
16.5499
22.6344
-13.4276
13.4726
-22.6794
13.7407
-13.9514
-23.0735
23.2842
-22.5553
-12.7679
13.2576
22.0656
-14.0457
14.1271
-23.5298
23.4483
9.10477
36.8544
-23.325
36.4387
-13.5933
9.09222
13.7164
22.9756
14.6973
-11.1226
10.1048
-13.5928
-11.0167
10.1243
14.4853
9.99693
-10.7678
13.712
-11.376
10.5794
14.3997
3.00837
0.857404
10.8315
0.856896
-11.4413
3.30501
14.1588
3.5598
-16.3084
3.27258
3.2856
3.67666
-17.251
9.97863
3.60206
-16.8456
3.26494
-16.9982
3.62165
3.31464
-13.3718
6.93141
6.98791
-17.0741
-13.3321
3.26528
3.63453
6.83953
5.46348
-12.3031
6.54153
-14.3299
-13.3835
6.3309
0.0165344
7.3927
-15.2994
7.07765
13.6099
-13.8482
13.6191
7.35699
6.2694
0.446857
-13.8745
13.1525
-13.8638
0.711147
-13.3134
0.545402
0.0402823
-14.4585
0.46678
0.106196
14.2196
-13.879
13.2587
0.666496
0.611765
-10.5166
23.3883
14.8661
21.9695
14.3172
15.417
23.2037
-28.0641
23.3664
15.4053
-38.1859
12.5161
15.1531
12.5585
-38.6027
23.0547
-1.54246
4.73122
-2.58166
4.77463
-1.58072
4.71038
-1.50975
-0.597851
4.44989
-1.42991
-2.17478
-4.04674
4.67906
-4.15326
-2.13735
-1.58023
20.63
-20.3603
-0.0523919
-0.217201
-20.5185
-0.247599
0.264353
0.00328477
-19.8107
-0.00798868
-0.0481388
-20.1852
0.0212001
20.5304
0.0123812
0.0873776
0.0530585
-0.041219
20.3195
-20.3553
-5.33554
-1.51213
19.8637
-13.0159
-1.39665
19.3591
-5.08907
-12.8734
-12.8607
-1.27323
19.186
-5.05207
19.65
-1.37509
-5.15445
-13.1204
14.5863
-6.64736
-13.2744
-6.61144
19.8011
14.368
-1.36538
-5.10412
22.2945
-6.89408
-26.3188
10.9184
-7.83146
22.9926
-26.3003
11.139
-25.2492
21.9246
-6.39456
9.71911
10.9919
23.2266
-7.88585
-26.3329
33.5796
14.7747
-26.06
14.6534
11.0948
33.4245
-7.65803
22.8286
-4.57128
-12.1087
7.23802
9.44184
7.26297
-11.9464
9.10736
10.9487
-13.75
7.75585
-13.4246
7.58548
10.6894
-17.2722
2.59104
10.1099
2.60276
-12.612
-18.4649
7.63127
25.9367
-14.3873
10.106
-21.6555
10.9034
25.0295
-15.0792
-20.8536
-21.8037
26.4971
-14.712
10.0187
-15.2793
25.7846
10.6358
-21.1412
10.7539
36.8921
-21.7092
37.6061
-15.9487
10.795
10.8178
26.5974
-1.14618
-11.4815
12.6277
-11.0248
12.1122
12.5592
-11.368
-9.8115e-05
-12.1947
13.2154
-1.51869
-13.4976
13.8701
-12.5435
-1.43153
-12.0662
-13.3226
-11.0267
9.71054
12.8771
-9.25664
-12.8253
9.20451
-11.7495
-17.2607
12.5918
11.535
-12.0156
-15.4031
-2.26452
0.488924
-11.5472
0.504809
10.1076
-2.9636
-14.2084
-11.5198
9.49656
8.20395
-6.18068
-6.33413
9.57623
8.23856
8.21047
9.35032
-6.08649
9.70322
8.35281
-6.43817
-1.89197
-17.9454
8.31756
-17.8176
9.59154
-1.87325
-6.36891
-11.6569
-0.610766
0.611529
11.6561
0.155699
-0.21838
11.8682
-11.8055
11.7272
-0.193513
0.106617
-11.6404
-0.21814
0.163481
12.0017
-11.947
-11.9127
-11.525
11.7807
-11.639
-0.117957
-11.9614
0.218258
-11.8731
23.5848
-16.5495
16.0235