/*--------------------------------*- C++ -*----------------------------------*\
  =========                 |
  \\      /  F ield         | OpenFOAM: The Open Source CFD Toolbox
   \\    /   O peration     | Website:  https://openfoam.org
    \\  /    A nd           | Version:  12
     \\/     M anipulation  |
\*---------------------------------------------------------------------------*/
FoamFile
{
    format      ascii;
    class       volVectorField;
    location    "100";
    object      U;
}
// * * * * * * * * * * * * * * * * * * * * * * * * * * * * * * * * * * * * * //

dimensions      [0 1 -1 0 0 0 0];

internalField   nonuniform List<vector> 
44296
(
(0.000407666 0.0969818 -8.70101)
(-0.0127143 0.231579 -8.597)
(0.00233942 0.0594787 -9.45709)
(0.00247809 0.0734587 -9.67716)
(0.0303567 0.121897 -8.48311)
(0.00146156 0.205656 -8.99669)
(0.0301496 0.117487 -9.38125)
(0.00315935 0.0773634 -9.49205)
(0.0146471 -0.107865 -9.79404)
(0.0479104 0.0316778 -10.2038)
(0.02384 -0.00412866 -10.2371)
(0.0143472 -0.0168707 -10.2485)
(0.0266565 0.00497644 -9.91897)
(0.041221 0.00405442 -9.92822)
(0.0281381 -0.00494679 -10.2364)
(0.0247411 -0.0157867 -10.2477)
(-0.0846137 0.769448 -7.50593)
(0.05008 0.70421 -9.085)
(-0.0147213 0.480545 -8.23777)
(0.0498974 0.34541 -9.37218)
(-0.0193402 0.546953 -9.16026)
(-0.0374524 0.535393 -8.13369)
(0.0130324 0.604703 -9.03451)
(-0.011811 0.567878 -9.05569)
(-0.0106631 0.0992945 -9.15997)
(0.0109934 0.0277775 -9.93002)
(0.0138722 0.0909845 -9.71181)
(0.0107027 0.0283613 -9.31965)
(0.00501957 0.0637766 -9.15213)
(0.0135434 0.0879909 -9.44374)
(0.0112567 0.0740581 -9.22627)
(0.00972134 0.0776738 -9.68162)
(8.65013e-05 -0.0739628 -8.95948)
(0.00131221 0.120107 -9.29872)
(-0.00930469 0.128212 -8.54578)
(-0.0015438 -0.00713052 -9.91577)
(-0.0020034 0.0141352 -9.07454)
(0.00267101 0.065873 -9.08088)
(0.0225696 -0.0125191 -9.02302)
(0.00736666 0.0866612 -9.05927)
(-0.00421267 -0.0940509 -10.242)
(0.00500585 -0.128505 -10.6277)
(-0.00994138 -0.00438723 -10.3251)
(-0.00493153 -0.0398435 -10.0602)
(-0.00567554 -0.0915506 -10.2037)
(0.00123277 -0.0610349 -10.2414)
(-0.00956915 -0.0278783 -10.022)
(-0.00408744 0.0115124 -10.313)
(0.0203754 0.051901 -9.65814)
(0.0106901 0.070829 -9.49836)
(0.00405346 0.167934 -8.55827)
(-0.0141014 -0.0609215 -9.76515)
(0.00973452 -0.0235909 -9.61949)
(0.000477055 0.0961557 -9.38887)
(0.00488073 -0.0229814 -9.65059)
(0.0179648 0.110883 -9.37464)
(-0.061242 -0.132581 -10.0718)
(0.0227066 -0.0921167 -10.0826)
(0.0130997 -0.0506039 -10.1681)
(0.0222565 -0.0686158 -9.87464)
(0.00921007 -0.0657858 -9.76451)
(0.0253352 -0.0822918 -9.8416)
(0.02029 -0.0678523 -9.79502)
(0.0432421 -0.0547554 -10.0185)
(-0.0171048 0.134741 -9.489)
(0.00723441 0.0865825 -9.88095)
(-0.00245142 0.130493 -9.53165)
(0.000422507 0.126732 -9.78923)
(0.00118608 0.125827 -9.44976)
(0.00080822 0.0879527 -9.53247)
(0.0029788 0.182335 -9.59957)
(0.00177928 0.134859 -9.55113)
(0.0678819 0.0219288 -10.8253)
(0.00933104 0.0753904 -10.5559)
(0.0103574 0.031364 -10.7393)
(0.0245068 -0.0115675 -10.5393)
(0.164701 -0.00247715 -10.6331)
(0.0163265 0.0577371 -10.6726)
(0.022888 0.0341696 -10.566)
(0.0440413 0.0411973 -10.6185)
(-0.0427392 0.126456 -9.81669)
(-0.0195313 -0.128346 -10.3097)
(0.0311944 -0.0199544 -10.7482)
(0.017802 0.00630191 -10.7174)
(0.0448961 -0.107452 -10.5791)
(0.0314714 -0.0292885 -10.5915)
(-0.0189481 -0.0454523 -10.6641)
(0.024246 -0.0793825 -10.6607)
(-0.0153852 -0.145163 -10.9937)
(0.0235419 0.124804 -10.2498)
(0.0182972 0.0676473 -10.0727)
(0.0161109 0.0107297 -10.4974)
(-0.00726022 0.00871067 -10.8783)
(0.00300723 0.142938 -10.33)
(0.000480218 0.00415168 -10.4191)
(0.0174438 0.161057 -10.3237)
(0.0235713 0.026667 -10.9814)
(-0.000350435 0.0184053 -10.9744)
(-0.0249567 0.209424 -10.4449)
(0.00261757 0.242926 -9.78232)
(0.0131425 -0.0935086 -10.9319)
(-0.00812252 -0.0364061 -10.9235)
(0.021188 0.224656 -10.16)
(0.0238018 0.190873 -10.3411)
(0.0388609 0.0772546 -9.37493)
(0.0128681 0.0636439 -9.71002)
(0.0389419 0.0465086 -9.86017)
(0.0042122 0.0475371 -9.28761)
(-0.00676424 0.0046388 -9.3078)
(0.0159381 0.0333653 -9.70949)
(-0.00493285 0.0260223 -9.33808)
(0.016063 0.0396362 -9.51299)
(0.0333966 0.0233048 -9.80125)
(0.0190993 0.0181637 -10.1661)
(0.0107244 0.0369915 -10.1022)
(0.0137502 0.0520209 -10.2826)
(0.0540135 0.0172736 -10.0528)
(0.0374362 -0.0233147 -10.1106)
(0.0156505 0.049836 -10.0784)
(0.0243745 0.053293 -10.1296)
(0.00975715 -0.10215 -10.8269)
(0.0101318 0.0239232 -10.0895)
(0.00873236 0.0940753 -10.4537)
(0.00904292 -0.0040519 -10.5567)
(-0.0210139 -0.00226392 -10.7574)
(-0.00443868 0.0221873 -10.6856)
(-0.00774348 0.00235473 -10.6356)
(0.028224 0.0449042 -10.4843)
(-0.0158192 0.13494 -8.89168)
(0.00015543 -0.13103 -8.8601)
(0.00276144 0.0733753 -9.59124)
(-0.00308598 0.0308486 -9.11396)
(0.0141889 -0.0842361 -9.37187)
(-0.00881941 -0.0641734 -9.21604)
(-0.0106711 -0.0167049 -9.27761)
(0.00784367 0.0103528 -9.21894)
(-0.000520851 -0.0922284 -9.90443)
(-0.0131482 -0.0955072 -9.53488)
(-0.0195158 -0.117368 -10.0985)
(0.00668247 -0.0950409 -10.142)
(0.0035163 -0.123199 -9.93941)
(0.0105749 -0.0892375 -9.86407)
(-0.0170696 -0.14758 -9.9795)
(0.00875584 -0.142025 -9.9565)
(-0.0575344 -0.0690994 -9.91645)
(0.0151969 0.0461953 -9.27758)
(0.00040664 -0.12055 -10.1328)
(0.00107689 -0.129601 -10.0983)
(0.000209754 -0.125343 -10.0858)
(-0.0116333 -0.135396 -9.69656)
(-0.0110951 -0.128311 -10.105)
(0.00549499 -0.165238 -10.069)
(-0.00348241 0.197038 -9.29641)
(0.011849 0.0482775 -9.80541)
(0.0215733 0.0316855 -9.63043)
(0.00453442 0.0922785 -9.56608)
(-3.68541e-05 0.111296 -9.57995)
(0.000117453 0.0304805 -9.63374)
(-0.0118607 0.0809192 -9.5086)
(0.0123409 0.00834749 -9.6974)
(0.0195089 -0.110098 -9.73367)
(0.0107794 0.0335957 -10.2588)
(0.0117607 0.0283604 -10.1874)
(0.0143565 0.08642 -10.3456)
(0.0159249 -0.0462923 -10.0389)
(0.0144242 0.0124098 -10.0951)
(0.00789224 0.0448127 -10.2033)
(0.0155868 0.0353162 -10.2246)
(-0.0701776 -0.169056 -11.2191)
(0.0217603 0.138924 -10.2934)
(0.0161011 0.138562 -10.0669)
(0.0236956 0.189304 -9.72926)
(0.00847622 0.149314 -10.5074)
(0.0167267 0.146279 -10.4743)
(0.0205391 0.14733 -9.87125)
(0.0377496 0.18756 -10.1552)
(0.00615724 0.0197918 -10.2975)
(0.0224036 -0.100277 -9.81318)
(0.0111667 0.0162428 -10.5325)
(-0.00599953 0.0280706 -10.2196)
(0.0222578 0.0493752 -10.195)
(0.101643 -0.0493473 -10.4555)
(0.0210338 0.0313655 -10.205)
(0.0181569 -0.0310567 -10.3696)
(0.00546399 -0.135351 -11.1925)
(0.00578499 -0.145923 -11.2196)
(0.00462553 0.0982186 -10.5793)
(0.005046 -0.0123111 -10.8067)
(-0.0284085 -0.115372 -11.1944)
(-0.0219129 -0.0268776 -11.1288)
(-0.00534841 -0.00987736 -10.89)
(-0.00793049 0.0156308 -10.8067)
(-0.0108493 -0.0226807 -10.307)
(0.00288538 -0.00390645 -10.142)
(0.0101024 -0.0935299 -10.7432)
(0.00912529 0.0313168 -9.91937)
(0.0207795 -0.023523 -10.3349)
(-0.000471392 -0.0213954 -10.3711)
(0.00817407 -0.0465865 -10.3098)
(-0.0132903 -0.0227687 -10.5704)
(0.0312256 0.0882964 -9.67156)
(0.0293033 0.0353645 -10.4592)
(0.0179942 0.0150769 -10.3106)
(0.0209567 0.0822642 -10.3687)
(0.0185452 0.108103 -9.85032)
(0.042326 0.0562393 -10.2912)
(0.0316028 -0.00212113 -10.1979)
(0.0324608 0.018811 -10.2339)
(-0.00663202 -0.0241351 -10.1122)
(0.0182222 -0.00428144 -10.3635)
(0.0106508 -0.00745104 -10.3314)
(0.0125409 -0.0367916 -10.4128)
(0.0340674 -0.0169158 -10.2987)
(0.0218144 -0.0233728 -10.3213)
(0.0197725 -0.0138396 -10.2929)
(0.031708 -0.0171901 -10.3529)
(0.0386161 -0.130816 -10.8404)
(0.00614199 0.0146158 -10.4722)
(-0.00106664 0.0886432 -10.5126)
(0.0170154 0.0460878 -10.7739)
(0.0263639 -0.0330916 -10.5847)
(-0.00120722 -0.00619799 -10.5512)
(0.0331659 0.0108759 -10.6152)
(0.00361461 0.0903859 -10.4967)
(-0.055776 -0.0199243 -10.7974)
(0.0042647 0.11424 -10.6541)
(-0.00765394 -0.079304 -10.4272)
(-0.00343223 -0.0185909 -10.8818)
(0.0450497 -0.0325015 -10.8964)
(0.00749716 0.0260429 -10.7942)
(-0.0325178 -0.045342 -10.923)
(-0.00210487 -0.0607934 -10.7619)
(-0.00837373 -0.0928442 -10.5141)
(0.0353374 -0.0414896 -10.58)
(0.00479804 -0.0074327 -10.3893)
(0.0137399 -0.0350301 -10.6781)
(0.0490275 -0.0490922 -10.7418)
(0.00816395 -0.0416057 -10.4842)
(-0.00205203 -0.0305711 -10.7026)
(0.00895437 -0.032857 -10.4678)
(0.0766472 0.537378 -9.49442)
(-0.0694128 0.686955 -9.33765)
(0.0519951 0.333325 -9.6707)
(0.0981109 0.217625 -8.76437)
(0.0731348 0.507257 -7.88833)
(0.0554706 0.45567 -9.18087)
(0.232168 0.268439 -8.64744)
(0.0563513 0.316571 -8.75173)
(0.0647483 -0.270282 -10.6852)
(-0.0166684 0.084826 -10.6363)
(0.0436133 -0.23592 -9.63958)
(-0.00289656 0.190788 -11.0542)
(0.0106568 -0.13207 -10.7953)
(-0.000768558 -0.111955 -10.6361)
(0.00873202 -0.151817 -10.7426)
(-0.000581559 -0.105086 -10.6991)
(0.00524461 -0.0346877 -10.3749)
(0.00803933 0.0136268 -10.501)
(0.00322723 -0.0507691 -9.87248)
(0.00640164 0.0319558 -10.21)
(0.0197986 -0.0261496 -10.3874)
(0.00480158 -0.015299 -10.5046)
(0.0133541 -0.0325219 -10.201)
(0.0222479 -0.0514307 -10.2734)
(-0.0149024 -0.0908805 -9.26805)
(0.0227066 -0.0377746 -10.1393)
(0.0253306 -0.0379324 -9.99277)
(0.0222434 -0.0419557 -9.76718)
(0.00384353 0.0406883 -9.60301)
(0.0149223 0.0274565 -9.94683)
(0.0173279 -0.000189462 -9.57901)
(0.0267164 -0.0586229 -10.128)
(0.010771 -0.0169171 -10.3872)
(0.00855576 -0.0385352 -10.3656)
(-0.00333805 -0.0269642 -10.5566)
(0.0153501 -0.0393008 -10.0865)
(0.00990514 -0.0407999 -10.1874)
(0.00317667 -0.0196314 -10.4127)
(0.000530096 -0.0584389 -10.2761)
(-0.00372489 -0.0293379 -10.4178)
(0.0526788 -0.168646 -10.5904)
(0.00144766 -0.0906517 -10.265)
(-0.0184268 -0.0670294 -10.7375)
(-0.00631723 -0.0199916 -10.3706)
(0.0005718 -0.0676437 -10.5067)
(0.0034819 -0.062728 -10.5093)
(0.00123862 -0.0737071 -10.5209)
(0.00836764 -0.0694642 -10.5486)
(-0.377555 -0.42732 -11.7089)
(0.129852 -0.804011 -11.3885)
(-0.0160596 0.321152 -11.3455)
(0.158672 -0.635669 -10.5735)
(0.10895 -0.732199 -11.496)
(-0.136353 -0.309455 -11.6271)
(-0.146699 -0.504367 -11.3753)
(-0.119226 -0.316364 -11.3567)
(-0.000892741 -0.0215246 -10.9761)
(0.0106828 -0.0737567 -10.8319)
(0.0160655 0.141874 -10.0071)
(0.00794184 0.184754 -9.75238)
(0.00643866 -0.0305714 -10.963)
(0.0350045 -0.0304336 -10.878)
(0.0140838 0.18041 -10.3219)
(0.00926672 0.190147 -10.2473)
(0.0227131 0.107467 -11.0252)
(0.0130722 0.109583 -10.5219)
(0.00791621 0.156879 -10.658)
(0.0146211 0.057411 -10.8078)
(0.0374125 -0.00217284 -10.913)
(-0.0014922 0.097022 -10.7584)
(0.00038722 0.0591978 -10.7712)
(0.00468683 0.131764 -10.6249)
(0.062922 -0.0542724 -9.06981)
(-0.0289888 0.226438 -8.96246)
(0.0205379 -0.0831297 -8.8695)
(0.00359255 0.0959557 -9.5455)
(0.00993393 0.165015 -8.71292)
(0.0270879 0.21099 -8.78403)
(0.0280606 0.061005 -9.11757)
(-0.00602061 0.0218604 -9.24778)
(-0.00961807 -0.0820651 -10.7639)
(-0.00501226 0.0118671 -10.8741)
(0.000909593 -0.0241786 -10.3653)
(0.00331472 -0.00497807 -10.6818)
(0.00402675 0.00367201 -11.0442)
(0.00855929 -0.000672318 -11.0166)
(0.0113382 -0.033052 -10.6441)
(0.0108911 -0.0401148 -10.6482)
(-0.0280001 0.125992 -10.1055)
(0.0099402 0.0775286 -10.1763)
(-0.0268354 0.0317156 -9.4958)
(-0.00578161 0.0723192 -10.185)
(0.00124205 0.0863668 -10.17)
(-0.00726007 0.114523 -10.159)
(-0.00189074 0.101067 -10.1506)
(-0.00128151 0.124684 -10.1528)
(-0.0110509 0.00541137 -10.7613)
(0.0234399 -0.0089839 -10.2832)
(0.0405792 0.0104377 -10.2994)
(0.0371007 0.0155964 -10.6436)
(0.0302848 -0.032638 -10.6363)
(0.0311803 0.0358339 -10.2288)
(0.0401756 -0.025497 -10.6059)
(0.0546832 -0.0147588 -10.4097)
(0.0117519 0.0752357 -10.3065)
(0.0243828 0.0679574 -10.4594)
(0.00751442 0.0327293 -10.271)
(0.0128262 0.0609853 -9.91359)
(0.0111422 0.0415556 -10.144)
(0.0142323 0.0823003 -10.2645)
(0.00939935 0.0403943 -10.1239)
(0.00904745 0.0686029 -10.1842)
(0.0512073 -0.138567 -10.0511)
(0.0161864 0.0317958 -10.7585)
(-0.0037792 0.216706 -9.31122)
(0.0282987 0.297748 -9.42753)
(0.106418 -0.0338602 -10.2133)
(0.0353652 0.0490893 -10.2198)
(0.034619 0.18023 -9.36748)
(0.00750868 0.205424 -9.55689)
(0.0595369 0.119498 -9.91998)
(0.0268099 0.0348098 -10.3614)
(0.0304402 0.152087 -9.63563)
(0.0358507 0.115958 -9.23681)
(0.029434 0.0812073 -9.70433)
(0.0350093 0.0962652 -9.91031)
(0.0345549 0.121971 -9.37506)
(0.014686 0.0829329 -9.71445)
(0.0347948 -0.902149 -11.1252)
(-0.0108103 0.236025 -10.12)
(0.00966196 -0.320979 -10.9006)
(-0.0690026 0.529027 -11.0682)
(-0.0486898 -0.014502 -10.7125)
(-0.0129601 -0.241764 -10.8685)
(-0.00898919 -0.311772 -10.8681)
(-0.00910745 -0.241043 -10.8781)
(0.0627179 -0.232081 -10.4568)
(-0.0341772 -0.0836721 -10.7321)
(0.00740028 0.0283806 -10.8036)
(-0.000214051 -0.00449119 -10.8494)
(-0.0174519 -0.0600618 -10.7769)
(0.0168768 -0.168456 -10.7033)
(0.00306743 -0.026741 -10.8497)
(0.00599731 -0.0174966 -10.8271)
(-0.00294961 0.0935363 -8.99397)
(0.0145974 -0.00502021 -9.65976)
(0.0131914 0.013197 -9.80428)
(0.007633 0.0530561 -9.37354)
(0.00630263 0.100706 -9.5545)
(0.0125608 0.0493388 -9.7696)
(0.0158477 0.063486 -9.48151)
(0.018374 0.0144657 -9.90399)
(0.0772352 0.0372146 -9.53903)
(0.0145206 0.0639113 -10.232)
(0.00708013 0.0639607 -9.78795)
(0.0278981 0.0426962 -10.1491)
(0.0268921 -0.0181255 -9.89631)
(0.0101293 0.0251652 -9.90315)
(0.0124295 -0.000295618 -9.87466)
(0.00484281 0.0108591 -9.89369)
(-0.0276945 -0.00303136 -8.81316)
(0.0156879 -0.00819739 -9.89085)
(0.0181303 0.0445735 -9.56119)
(0.01304 0.0442014 -9.37826)
(-0.00465372 0.0392502 -9.17815)
(0.00254516 0.0717763 -9.56741)
(0.00856284 0.0415833 -9.43253)
(0.0170109 0.0735457 -9.5742)
(-0.0460917 -0.0825338 -9.14512)
(-0.0774682 -0.0350283 -9.72186)
(0.0211089 -0.0553156 -10.0097)
(0.0158848 -0.0476851 -9.56563)
(-0.0505452 -0.0714459 -9.46749)
(-0.00687277 -0.058548 -9.76311)
(0.00360511 0.0194047 -9.61894)
(0.0230371 -0.0130585 -9.6391)
(0.0267618 -0.0193827 -10.3503)
(0.00548144 -0.00678646 -10.3266)
(0.00316173 -0.0493576 -10.3367)
(0.0192492 -0.0466397 -9.71052)
(0.0335068 -0.0256436 -10.4041)
(0.00182287 -0.0146079 -10.3524)
(0.014283 -0.0419267 -10.3098)
(0.01255 -0.0160286 -10.2565)
(0.0178582 0.0910111 -9.62226)
(0.00943072 -0.00976746 -9.68343)
(0.00659914 0.0522766 -9.95667)
(0.0165942 0.00192789 -9.82982)
(0.022036 0.0378024 -9.45899)
(0.0171469 0.0358154 -9.63452)
(0.00913851 0.0425191 -9.67999)
(0.00628922 0.0498451 -9.60563)
(0.00487219 0.0155724 -11.1432)
(0.0266966 -0.032243 -10.4937)
(0.0192853 0.0329625 -10.7485)
(0.0380057 0.0316447 -10.7012)
(0.00505113 -0.0334695 -10.8162)
(0.00891658 -0.0146901 -10.8382)
(0.00955473 -0.00240491 -10.8763)
(0.0470297 0.0339967 -10.6691)
(-0.0338372 -0.0979637 -10.0056)
(-0.0479763 -0.198778 -9.63293)
(-0.025977 -0.0652949 -9.97978)
(0.00591653 -0.016109 -10.2842)
(0.0188407 -0.123762 -10.5597)
(-0.0739872 -0.0564273 -10.3381)
(0.0173256 -0.20342 -10.7414)
(0.101256 -0.0261427 -11.2142)
(0.00912124 0.0947347 -10.0221)
(0.0203968 0.155989 -10.0887)
(0.00297689 -0.0709639 -11.1102)
(0.0242235 0.174786 -9.7248)
(0.0359449 0.102315 -9.9925)
(0.0119152 0.111606 -10.4582)
(0.00906939 0.134172 -9.78294)
(-0.00531664 0.0976045 -10.4343)
(-0.0144956 0.355906 -8.83949)
(0.061922 0.196547 -9.23917)
(0.00275682 0.582989 -9.43217)
(-0.0435349 0.0468905 -10.3176)
(0.013045 0.147011 -9.40259)
(0.110605 0.142963 -9.42499)
(0.0193099 0.329364 -8.87155)
(0.0329574 0.232074 -8.99074)
(0.0638649 -0.0607413 -9.61192)
(0.110649 -0.096398 -9.69882)
(0.0678303 0.0651915 -10.2817)
(0.00930348 0.0232581 -10.168)
(0.00834394 -0.170995 -9.76003)
(0.0151858 -0.120053 -9.75263)
(0.0270571 0.0353917 -9.91847)
(0.00607761 -0.00439809 -9.93948)
(-0.186739 0.784642 -9.0477)
(-0.00932606 0.721127 -8.81403)
(0.0318292 0.237824 -9.51489)
(0.0629339 0.254241 -8.0067)
(0.0189819 0.788692 -8.98705)
(0.0232698 0.730102 -8.97132)
(0.0350973 0.255278 -8.58162)
(0.0235058 0.276962 -8.74373)
(-0.033527 -0.367704 -9.52735)
(-0.447748 -0.412903 -9.03717)
(-0.345171 -0.171363 -9.22619)
(0.00950729 -0.0146413 -10.7493)
(-0.0351186 -0.292847 -10.3351)
(-0.00851535 -0.452849 -9.17608)
(-0.0708907 0.126062 -10.5841)
(-0.0774818 0.0721126 -10.5389)
(-0.000987863 0.0309736 -10.0832)
(0.0200883 -0.0119989 -9.87534)
(0.036448 0.0662075 -10.0539)
(0.00362587 -0.0126786 -10.1708)
(0.00623118 0.0397471 -10.1009)
(0.0211139 -0.0168396 -10.0768)
(0.00959786 0.0634042 -10.1174)
(0.00330911 0.0487008 -10.0841)
(-0.021117 -0.123272 -11.1092)
(0.0471458 -0.0271649 -11.1969)
(0.0220696 0.014125 -10.7288)
(0.019447 -0.0162732 -10.8073)
(0.0106901 -0.0509589 -11.1598)
(-0.00348185 -0.00190279 -11.1535)
(0.0108315 0.00101853 -10.7688)
(0.0137855 0.0206171 -10.7139)
(0.022294 -0.0267819 -9.54245)
(0.022533 -0.0921705 -10.1887)
(0.00378398 -0.155306 -9.96956)
(0.0104361 -0.0904906 -10.1571)
(0.0322488 -0.0768486 -10.1946)
(0.026288 -0.118093 -10.496)
(0.0220871 -0.0900247 -10.263)
(-0.00403942 -0.104308 -10.4824)
(-0.0429465 0.312361 -11.2514)
(0.0869789 -0.402094 -10.2073)
(0.0384633 -0.292109 -11.4992)
(0.0763683 0.537485 -11.2587)
(-0.132883 0.110857 -11.1382)
(-0.0015799 -0.378175 -11.135)
(-0.061375 0.365482 -11.1634)
(0.00890932 -0.308087 -10.7287)
(-0.00805322 -0.0734383 -9.9142)
(0.132289 0.0630342 -9.20345)
(-0.0415277 0.0833932 -9.40492)
(-0.000575699 -0.134329 -10.1001)
(0.00204756 -0.146558 -9.9519)
(0.0287676 -0.0496555 -9.59068)
(0.027603 -0.143731 -9.90081)
(0.000780955 0.0340442 -9.40055)
(-0.00621884 0.106643 -9.8256)
(-0.0271087 0.0793317 -10.0911)
(0.0378803 0.0141635 -10.2151)
(0.00377993 0.0378028 -10.2488)
(0.0325834 0.0499732 -10.5249)
(-0.00301853 0.0745587 -10.4777)
(0.0140045 0.026989 -10.2532)
(0.0091647 0.00976495 -10.226)
(0.0408331 0.0100498 -10.3292)
(0.0166714 0.0314176 -10.3627)
(-0.108372 0.372164 -10.295)
(0.0122795 0.139016 -10.2931)
(0.0330076 0.000326731 -10.3092)
(0.0301646 0.00848232 -10.3602)
(0.0162953 0.11072 -10.0603)
(0.0340818 0.170521 -10.0928)
(0.0118051 0.124391 -9.14827)
(0.00578819 0.0130375 -9.53156)
(-0.0241902 -0.0122641 -9.08152)
(0.00489708 0.044572 -9.74195)
(-0.00526838 0.0488817 -9.59892)
(0.00502781 -0.0323757 -9.47492)
(0.000867388 0.121443 -9.5551)
(0.00857583 -0.00790271 -9.39421)
(0.00475081 0.0122116 -10.135)
(0.00691913 -0.118863 -10.7682)
(0.00406449 -0.0187462 -10.2596)
(0.00472958 0.0159031 -10.0406)
(0.0135349 0.0182066 -10.2523)
(0.00514362 -0.0324745 -10.6311)
(0.00977801 0.00203894 -10.0825)
(0.00926317 -0.0112391 -10.372)
(0.0342223 -0.124831 -10.5246)
(-0.0524915 0.0144082 -10.6203)
(0.0137101 -0.0259097 -10.6525)
(0.00834005 -0.0205823 -10.8572)
(0.000152838 -0.118594 -10.7204)
(-0.00975612 -0.0722258 -10.7329)
(0.00315104 -0.0230729 -10.7163)
(-0.0115507 0.0141827 -10.7034)
(-0.00101015 -0.0199659 -10.2991)
(0.0110606 -0.0353917 -10.2887)
(0.000625683 -0.0730071 -10.2052)
(0.00364341 -0.0177947 -10.0406)
(0.0145236 -0.0307666 -10.2787)
(-0.00657288 -0.0320509 -10.2206)
(-0.00643629 -0.0140392 -10.0212)
(0.00668325 -0.0533219 -10.1645)
(0.0136194 -0.0568505 -10.789)
(0.0753148 -0.0926868 -10.693)
(0.0129258 -0.0212719 -10.2841)
(0.0384217 -0.0219042 -10.8127)
(0.0409596 -0.0915515 -11.1031)
(0.0125842 -0.111355 -11.0441)
(0.0267312 -3.95536e-05 -10.7664)
(0.0226166 0.0221094 -10.72)
(0.00617859 0.0405986 -9.03693)
(0.0290938 0.0774348 -9.90805)
(0.029677 0.0381001 -9.68433)
(0.0238408 0.056414 -8.92737)
(0.0128483 0.00956221 -9.17423)
(0.0134955 0.0590866 -9.76862)
(0.00178769 0.0415597 -9.02147)
(0.0174835 0.00367608 -9.62386)
(-0.0137251 0.0644451 -9.71956)
(0.0360688 0.0563962 -10.2478)
(0.0204942 0.0501711 -10.2138)
(0.0371145 0.0215619 -10.1587)
(0.014673 -0.00334111 -9.92859)
(0.00991992 0.044894 -10.2421)
(0.0163332 0.0126595 -9.92366)
(0.0259342 0.0435372 -10.2344)
(-0.119083 -0.134748 -8.73252)
(-0.134182 -0.177162 -9.46629)
(-0.112767 -0.271188 -9.45513)
(-0.0191493 -0.0391845 -10.8666)
(-0.0216593 -0.0716852 -10.2447)
(-0.0135969 -0.0612917 -8.84149)
(-0.0689977 -0.121195 -10.8066)
(-0.00946984 -0.149345 -10.1732)
(0.0281558 0.109095 -10.8857)
(0.0237743 0.304069 -9.95638)
(0.0326232 0.249484 -10.3272)
(0.0256459 0.243757 -9.68107)
(-0.0219678 0.274406 -10.2704)
(0.00507061 0.296253 -10.3353)
(0.00735317 0.221634 -10.1559)
(0.0531062 0.17036 -10.1062)
(-0.0018477 -0.0793309 -9.71443)
(0.00258537 0.00972954 -10.2019)
(0.00148484 0.0159202 -10.1952)
(0.0101065 0.0224383 -10.2598)
(0.00653555 0.0147235 -10.0892)
(0.00466961 0.011453 -10.065)
(0.0134268 0.0201854 -10.1763)
(0.00343 0.00222185 -10.1933)
(-0.0695959 -0.123521 -11.253)
(0.0540707 0.109977 -11.2099)
(0.0169529 0.0132544 -10.8682)
(0.0270043 -0.0395026 -11.0322)
(0.0274302 -0.0162104 -11.2906)
(-0.00723594 0.046714 -11.2616)
(0.0290349 -0.0298307 -10.9537)
(0.00590312 -0.0421214 -10.9302)
(0.0101325 0.0237421 -8.7894)
(0.0188682 0.0816709 -8.62359)
(0.0164588 0.0400316 -9.45431)
(0.0156154 0.0578108 -9.73781)
(-9.94243e-05 0.0685232 -8.78529)
(0.00235722 0.0823576 -8.78696)
(0.0100297 0.0495444 -9.46448)
(0.00891298 0.039885 -9.50776)
(-0.0905802 0.080079 -9.88036)
(0.0098989 0.124832 -10.2414)
(-0.0463131 0.0903963 -10.2534)
(0.00890861 0.0414752 -10.2864)
(0.00888579 0.0894894 -10.2626)
(0.00524792 0.185548 -10.2397)
(-0.00195576 0.040415 -10.3516)
(-0.000449219 0.100662 -10.347)
(0.0714103 0.0423322 -9.58526)
(0.0277945 0.0187624 -9.67413)
(0.0211505 0.0273989 -10.2101)
(0.00768644 -0.00746374 -10.2541)
(0.0134421 -0.0617039 -9.68472)
(-0.0258085 -0.036991 -9.68854)
(0.0158289 0.00317849 -9.8613)
(0.00241337 -0.0018725 -9.98058)
(-0.00139918 -0.0708202 -10.5885)
(0.00192237 -0.0436541 -10.5221)
(0.0098734 0.0310945 -10.3416)
(-0.000173873 0.0492828 -10.3828)
(0.00435908 -0.0444974 -10.5815)
(-0.00084484 -0.0591951 -10.623)
(0.00416662 -0.0174263 -10.4305)
(0.00323427 -0.0305937 -10.5069)
(0.0050099 0.173586 -10.4091)
(0.0189513 0.0606644 -10.4929)
(0.0156466 0.127757 -9.89256)
(0.0155857 0.175342 -10.5674)
(0.00874573 0.185656 -10.4917)
(0.00329713 0.185648 -10.3233)
(0.00402941 0.146907 -10.3805)
(0.0117223 0.154584 -10.2221)
(0.00473365 -0.122504 -10.8915)
(0.0339965 -0.0369136 -10.5251)
(-0.040651 -0.0524328 -10.8593)
(-0.00578355 -0.0196534 -10.8325)
(-0.0121333 -0.0786733 -10.9096)
(-0.126292 -0.0303413 -10.8876)
(-0.0193721 -0.0515145 -10.895)
(-0.0239793 -0.0703659 -10.8555)
(0.0507783 0.164006 -10.5027)
(0.000701322 0.152215 -10.6018)
(-0.00645996 0.112728 -10.9911)
(0.0261304 0.226644 -10.4921)
(0.00675246 0.138929 -10.5625)
(0.0153888 0.156294 -10.58)
(0.0345725 0.112423 -10.7514)
(0.0134376 0.14736 -10.7694)
(-0.00472683 -0.0399097 -8.93531)
(-0.0158824 0.0949032 -8.83085)
(0.0200121 0.0436114 -9.69079)
(-0.00160736 0.0362822 -8.89802)
(0.00685559 0.1096 -8.95264)
(-0.00293574 0.0627347 -8.94827)
(-0.00115726 0.0318334 -9.2331)
(0.0169194 0.0453195 -9.25509)
(-0.0097411 0.107526 -8.61142)
(-0.000874794 0.142923 -8.50005)
(0.0331924 0.118867 -9.19981)
(0.00891954 0.0379055 -9.02132)
(-0.0178256 0.110675 -8.59117)
(-0.00467609 0.146201 -8.79342)
(0.0162057 0.0907885 -9.12565)
(-0.00076687 0.118784 -9.11018)
(-0.0255297 -0.00943119 -9.85575)
(0.0327348 -0.0364808 -10.1635)
(0.00300349 -0.0755603 -10.3682)
(0.0191669 0.0317924 -9.98262)
(0.0334495 0.00874278 -10.01)
(0.00897496 -0.0260901 -10.1626)
(0.000597124 -0.00195092 -10.0745)
(0.0211812 -0.0292615 -10.159)
(0.00559825 0.601641 -8.84302)
(-0.0327826 0.187015 -8.84199)
(0.00307729 0.322624 -9.56237)
(0.0315205 0.273364 -8.38967)
(-0.0165542 0.204348 -8.49678)
(0.0218422 0.264082 -8.71749)
(0.0307407 0.279529 -8.4947)
(0.0307053 0.352668 -8.9918)
(0.00341482 0.0201379 -10.1313)
(-0.0263883 0.000501314 -10.2561)
(0.0167624 0.0738827 -10.3432)
(0.0234794 0.0559001 -10.2991)
(-0.00616429 0.0622515 -10.3962)
(-0.00450661 0.0878456 -10.3523)
(0.0135543 0.0594761 -10.3141)
(0.00502 0.112584 -10.3189)
(0.0158559 -0.0328341 -9.74516)
(-0.000938292 0.0773262 -10.0775)
(-0.00565371 0.0647895 -10.2952)
(0.011057 0.0691385 -10.3308)
(0.0170104 0.0194436 -9.91684)
(0.00301661 0.0400673 -9.97982)
(0.00699787 0.0772097 -10.238)
(0.00105882 0.0467044 -10.2671)
(0.0387294 0.0967017 -10.4367)
(0.0334917 -0.00844921 -10.6218)
(0.0158503 -0.00863353 -10.3362)
(0.0152937 -0.0686023 -10.8214)
(-0.00131349 0.0320395 -10.7524)
(0.0306632 0.00571258 -10.8832)
(-0.0017901 -0.0595666 -10.7314)
(0.0214185 -0.0774669 -10.7288)
(-0.108821 0.210978 -9.79062)
(0.00917969 0.134677 -9.91)
(0.00598151 0.13049 -9.391)
(-0.00483236 0.197624 -10.4699)
(0.00203102 0.201948 -10.1227)
(0.00335828 0.181869 -9.59105)
(-0.00679133 0.177443 -10.1047)
(-0.0101561 0.150111 -9.79773)
(-0.384367 0.0747635 -10.7853)
(-0.0272489 0.220519 -10.7371)
(0.158304 0.986209 -11.6852)
(-0.0429899 -0.519307 -10.5757)
(-0.0460884 -0.184598 -11.0119)
(0.0941166 -0.0294061 -10.4059)
(0.107166 0.308074 -11.2831)
(0.170165 0.088541 -11.1293)
(0.0227162 0.00148373 -10.4703)
(0.0138618 -0.0383024 -10.391)
(0.0192693 0.0822559 -10.545)
(0.00960838 -0.0134495 -10.6318)
(-0.00135054 -0.0139392 -10.5497)
(0.0127447 -0.0514965 -10.3936)
(0.002574 -0.00346304 -10.9745)
(-0.00550118 -0.011133 -10.9032)
(-0.0237107 0.1526 -10.601)
(-0.00417424 -0.044954 -11.119)
(0.0259776 0.199704 -10.4489)
(0.0216956 0.232235 -10.3376)
(-0.0104005 0.129359 -10.8417)
(0.0206147 0.199534 -10.7946)
(0.0138202 0.204226 -10.5221)
(0.0278103 0.298137 -10.459)
(-0.0219816 0.654838 -9.55144)
(0.176761 0.726025 -10.7548)
(0.0649317 0.378067 -9.98048)
(0.0440048 0.168713 -10.2208)
(0.111945 0.0773304 -10.3116)
(0.0673749 0.398101 -10.4151)
(0.000709597 0.174312 -10.3984)
(0.0534758 0.36995 -10.2228)
(0.0232107 0.348371 -9.16142)
(0.0373241 0.219447 -10.4827)
(0.0620568 0.193681 -10.75)
(0.0136846 0.0119522 -10.3474)
(-0.0330679 0.198309 -9.7318)
(-0.00444821 -0.0760467 -10.6741)
(0.0352082 0.0372786 -9.85093)
(0.0252115 -0.0957339 -10.6442)
(-0.100095 0.319698 -10.6049)
(-0.029662 0.303824 -11.1495)
(-0.0602202 0.214315 -10.4408)
(0.0383049 0.13694 -10.5209)
(-0.081941 0.263604 -11.0862)
(-0.131334 0.444834 -9.76688)
(0.0269957 0.13549 -11.5291)
(-0.0818109 0.232118 -11.5473)
(-0.0207257 -0.284997 -10.7534)
(0.00743884 -0.00949603 -10.8511)
(0.0015079 -0.141925 -10.8461)
(0.00348306 0.247909 -10.9173)
(-0.0153651 -0.0930488 -10.8675)
(-0.0022223 -0.050062 -10.8902)
(0.0122012 -0.0759018 -10.8026)
(0.016752 -0.033632 -10.8407)
(-0.00592225 0.0241999 -10.4534)
(0.0117121 0.000853029 -10.3514)
(0.000486378 0.00439748 -10.3165)
(-0.0127715 6.51015e-05 -10.2284)
(0.00469996 -0.0101354 -10.4219)
(0.00642917 -0.00338157 -10.3808)
(0.00185095 -0.00252842 -10.3584)
(0.00631693 -0.0108255 -10.328)
(-0.0305485 -0.249271 -9.68464)
(-0.0273175 -0.182402 -9.73877)
(-0.0994944 -0.303056 -10.143)
(-0.0322236 0.0255913 -10.7779)
(0.000292072 -0.235722 -10.4669)
(-0.0295825 -0.154449 -9.43543)
(-0.0242673 -0.1629 -10.7706)
(0.0274776 -0.26086 -10.4019)
(-0.0291717 -0.0171143 -10.3865)
(0.0176171 0.00161105 -10.3863)
(0.0190791 -0.0482999 -10.496)
(0.0386099 -0.0237606 -9.78625)
(0.00333947 -0.0492321 -10.6106)
(0.0114817 -0.0509561 -10.512)
(0.0182352 -0.0962163 -10.0713)
(0.0251681 0.0741906 -9.87377)
(0.0147712 0.111728 -7.97547)
(-0.0272375 0.0120698 -8.63299)
(0.00631387 0.0931947 -8.82954)
(0.0242613 0.0557179 -9.53574)
(-0.0147683 0.18375 -9.382)
(0.0277828 0.0991589 -9.16913)
(0.00644203 0.106346 -9.32982)
(-0.072264 0.0613885 -9.25312)
(0.0341771 0.0821637 -10.2179)
(-0.00770121 0.0189253 -10.2151)
(0.00640801 -0.130872 -9.59449)
(0.0255266 0.0286487 -10.1325)
(0.0060686 0.0312492 -10.2415)
(-0.0168003 0.0200823 -10.2192)
(0.0119189 0.0125092 -10.0149)
(0.0169813 0.0598229 -9.92961)
(-0.00600788 -0.0808948 -10.596)
(-0.0228923 0.110378 -10.6853)
(-0.00610859 -0.0409562 -10.6926)
(-0.00320943 -0.0656419 -10.4479)
(-0.0070343 -0.0819352 -10.5934)
(0.00842411 0.0253947 -10.6622)
(-0.0175623 -0.111077 -10.5414)
(0.00157554 -0.0818018 -10.5868)
(-0.0187629 0.120188 -9.507)
(-0.0206136 0.167305 -9.30881)
(0.00579966 0.152191 -9.63936)
(0.00813919 0.00519023 -10.2235)
(-0.0289124 0.128693 -9.85111)
(0.00347321 0.231006 -9.74975)
(0.0125259 0.041194 -10.3812)
(0.00123341 0.0978214 -10.5858)
(-0.0145907 -0.311259 -9.69704)
(0.0151953 -0.0437048 -10.2002)
(0.0220329 0.0157782 -10.0695)
(0.0208626 -0.00696547 -10.2892)
(0.013644 -0.0509833 -10.0235)
(0.00477073 0.0167805 -10.1335)
(0.0105791 -0.0107936 -10.2277)
(0.0391971 -0.00261022 -10.1406)
(-0.0352959 0.581791 -8.01573)
(-0.0165746 0.363239 -9.36162)
(0.030934 0.345361 -9.95677)
(0.0207953 0.120548 -10.1814)
(-0.032844 0.0954743 -9.2027)
(-0.00176751 0.19971 -9.5429)
(0.0150133 0.211181 -10.0195)
(-0.00658117 0.399467 -9.73139)
(0.0418395 0.121796 -10.072)
(0.0203072 0.0795849 -10.5683)
(0.0250071 0.102607 -10.2252)
(0.0302922 0.123741 -9.37719)
(0.0254387 0.0951655 -9.93874)
(0.0180172 0.129085 -10.2098)
(0.0386541 0.0993249 -9.54542)
(0.0172413 0.128263 -10.1007)
(-0.0114422 -0.172724 -9.60737)
(-0.00902115 -0.141169 -9.33291)
(-0.0294532 -0.0591287 -9.38512)
(-0.000776075 -0.0556059 -10.3159)
(0.0467044 -0.110758 -10.699)
(0.0346392 -0.149584 -9.51836)
(0.0183792 -0.0873303 -10.6379)
(-0.0131226 -0.0834836 -9.70451)
(0.0200523 0.0117316 -10.8777)
(0.0170873 -0.0428574 -10.9619)
(-0.0309796 -0.206788 -11.2396)
(0.0247725 -0.0152508 -11.0555)
(0.0214787 -0.00878896 -10.857)
(0.0133215 -0.0659422 -10.9471)
(0.0025906 -0.0151663 -10.9736)
(-0.00688109 -0.117252 -11.1103)
(-0.00578136 -0.0710105 -10.5979)
(0.0236242 0.0268491 -10.459)
(0.00960347 -0.0627598 -10.4462)
(-0.00134321 -0.0543833 -10.6169)
(-0.00452484 -0.0671817 -10.6069)
(-0.00298234 -0.0519504 -10.5632)
(-0.00354627 -0.0698155 -10.6088)
(-0.00400938 -0.0720884 -10.5819)
(-0.00507261 0.0181013 -10.5297)
(0.0949204 -0.00199893 -10.2762)
(-0.00400467 -0.0386147 -10.3845)
(0.00150153 -0.0627866 -10.354)
(0.0186144 -0.0999194 -10.9214)
(-0.00609106 -0.0705046 -10.3356)
(0.0207011 -0.0622933 -10.3723)
(-0.0191839 -0.0410296 -10.3877)
(0.0110414 -0.0791128 -9.13716)
(-0.000601271 0.124112 -9.06042)
(0.00979811 0.22932 -9.1099)
(0.00531353 0.0697247 -9.62756)
(0.0127889 0.0970504 -8.96597)
(0.0101824 0.121248 -8.9756)
(0.016433 0.165116 -8.92821)
(-0.0224732 0.16472 -8.98627)
(-0.000656636 0.434604 -8.36692)
(0.0516696 0.407208 -9.07314)