/*--------------------------------*- C++ -*----------------------------------*\
  =========                 |
  \\      /  F ield         | OpenFOAM: The Open Source CFD Toolbox
   \\    /   O peration     | Website:  https://openfoam.org
    \\  /    A nd           | Version:  12
     \\/     M anipulation  |
\*---------------------------------------------------------------------------*/
FoamFile
{
    format      ascii;
    class       volScalarField;
    location    "102";
    object      nut;
}
// * * * * * * * * * * * * * * * * * * * * * * * * * * * * * * * * * * * * * //

dimensions      [0 2 -1 0 0 0 0];

internalField   nonuniform List<scalar> 
44296
(
0.223578
0.256541
0.141027
1
0.14117
0.0633201
1
1
0.112754
0.0857144
0.390743
0.256525
0.0473935
0.0573406
0.28693
0.296576
0.517713
0.399351
0.414024
0.0350904
0.387839
0.486908
0.248353
0.351769
0.0564909
0.467671
1
0.0215914
1
1
0.049488
0.381108
0.114464
0.0376764
0.254614
1
0.0550363
0.0699703
0.0524254
0.0914249
1
0.103018
1
0.194898
1
0.413466
0.217243
1
1
0.323358
0.191187
1
1
0.0625012
1
0.0683688
0.154447
0.0333567
1
1
0.0377051
0.027944
1
1
0.0850129
1
0.0420705
0.038887
0.0506126
0.0441307
0.0405258
0.0404143
0.245216
0.0750551
0.0441238
0.0488709
0.087956
0.0579154
0.0541791
0.0472304
0.351607
0.405733
0.0635893
0.0489084
0.257064
0.277335
0.0801371
0.0833781
0.106526
1
0.226868
1
0.0732372
0.0437203
1
0.137026
0.178414
0.206491
0.0364867
1
0.102529
0.176843
0.109121
0.135579
0.304019
1
0.133233
0.0586314
0.0659425
0.139986
0.0432274
0.109488
0.0946308
1
1
1
0.118144
1
1
1
0.106961
0.0301148
1
1
0.0693987
0.0184626
0.0772163
0.115969
0.482517
0.522868
1
0.0510385
0.181357
0.277305
0.0662362
0.0807823
0.0678116
0.10248
0.171417
0.527655
0.0464041
0.0494032
0.0648634
0.0402683
1
1
1
1
1
0.112106
1
0.0571193
1
0.475866
0.334471
1
1
0.354055
0.0640533
1
0.0391159
0.16671
1
1
0.0237707
0.0437216
0.162279
0.142987
0.0978289
0.0801976
0.328649
1
0.126156
0.623811
0.455589
0.653039
1
0.133052
0.0792894
1
1
0.069672
1
0.0689891
0.455748
0.190371
1
1
0.311585
0.260605
0.518435
1
1
0.0815748
1
0.603888
0.415574
0.128578
0.221873
0.0707348
0.261169
0.0703571
0.194335
0.0473064
1
0.220999
0.149295
0.180901
1
0.11071
0.218915
0.0543718
0.0466515
0.13433
0.0386332
0.160524
0.158208
1
1
0.0580302
0.0736249
1
0.04606
1
0.622389
1
0.383423
1
0.201279
0.16363
1
0.104951
0.0333424
0.12225
0.233427
1
0.046026
0.177941
1
1
0.0829105
0.101232
0.0570824
0.0914104
0.0467375
0.0408453
0.0400336
0.0312582
0.370989
0.0481437
0.233376
1
0.100838
0.105208
0.116249
0.158708
1
0.201671
0.0572075
1
1
1
0.13219
0.0533549
1
1
1
0.135918
0.156569
0.153436
0.0778988
0.975292
0.0657727
1
0.207
0.190009
0.117292
1
0.490035
1
0.170085
0.899753
0.190071
1
0.0416034
0.0664664
0.0842771
0.0696049
0.384836
0.63835
0.475966
0.338261
0.138909
0.430347
0.313627
0.267002
0.145895
0.197207
1
1
0.0783916
0.0560464
1
1
1
0.231488
1
0.091327
0.536406
0.170112
0.115594
1
0.0509947
0.244616
0.104525
0.114756
0.0354269
0.0565621
0.0658122
0.0606201
0.298966
0.241555
1
0.973748
0.073905
0.168038
1
0.861641
0.0908112
1
0.175461
1
0.204569
0.6414
1
0.67863
0.180968
1
1
1
0.047148
0.150426
1
1
1
0.0847774
1
0.174388
1
1
1
1
1
1
1
0.497909
0.0174741
1
0.124622
1
0.529059
0.159909
1
1
0.581995
0.306985
1
1
0.0396643
0.0665479
0.121155
0.0355069
0.0325419
0.100929
0.0414723
1
0.129216
0.278457
0.0686269
0.0497057
0.0897758
0.113906
0.0548321
0.0488443
0.11507
0.111792
1
0.0907858
0.0555655
0.188267
0.0611528
1
0.197488
1
0.203247
0.281377
0.0651802
0.0856501
0.0736292
0.0456288
0.224649
1
0.0571019
0.153294
0.0836437
0.0446003
0.0754759
0.12947
0.365997
0.386395
1
0.0559369
0.210028
0.0908343
1
1
0.113537
0.0781996
0.234695
1
0.0543403
0.0675951
0.124203
1
1
0.0645281
1
1
0.228633
0.0651694
1
0.130563
0.15675
1
0.106926
0.32779
0.0742876
0.120839
0.0445938
0.0783649
0.497443
0.64701
0.446159
0.127774
0.382276
0.463123
0.109799
0.29425
0.0960926
0.225373
0.0937131
1
0.0760167
0.0400553
0.203369
0.0473161
0.634491
0.163499
0.179344
0.108499
0.294315
0.589406
0.223326
0.182198
0.223514
0.25587
0.205788
0.275492
0.108987
0.190178
0.0398938
0.0372521
0.201897
0.211641
0.133359
0.0941684
0.114713
0.0439429
0.0403511
0.0524346
0.72613
0.803889
0.770211
0.0816881
0.718478
0.972105
0.275163
0.395021
0.0764985
0.122138
0.080063
0.0474241
0.0609878
0.0473818
0.221969
0.147963
0.396925
0.380611
0.144506
0.0798412
0.258052
0.327567
0.0635574
0.174659
0.157382
1
0.149249
1
1
0.254302
1
0.278983
0.21155
0.160145
0.660577
0.0705108
0.132408
0.183363
0.148391
0.232313
0.0618729
0.266876
0.344322
0.14211
0.0444793
0.133671
0.0680051
0.216519
0.11333
0.103836
0.420141
0.846976
0.23729
0.201098
0.482205
0.449531
0.114327
1
0.258643
0.095495
0.167852
0.144012
0.056781
0.0999815
0.231771
0.0570087
0.314369
1
0.128086
0.0788375
0.0724275
0.0973927
1
0.105988
0.0539868
1
1
0.0242051
1
0.0265323
0.350258
0.262025
1
0.0550844
0.199844
0.0964613
0.0832851
0.144095
1
1
1
0.510898
1
0.116147
0.344963
1
0.341431
0.343914
1
0.0563014
0.181027
0.160714
0.110146
1
0.207676
0.0794526
1
0.0344772
0.127635
1
0.079425
1
0.130536
1
0.2419
0.459409
0.0347956
0.360876
0.0273728
0.256595
0.672615
0.859697
0.540669
0.15249
0.44726
0.655065
0.318861
0.465999
0.161703
0.138996
0.0337125
1
1
0.274353
1
1
0.0808682
0.568757
0.1384
1
1
0.46518
1
0.181721
0.200018
0.26339
0.287496
0.0691452
0.13231
0.173183
0.074766
0.0888551
0.261284
0.30911
0.0345957
1
0.0893239
0.18586
0.838868
0.165854
0.323
0.053234
0.274202
1
0.184304
0.108355
0.153042
0.133712
0.236847
0.228873
0.109448
0.493769
0.104921
0.188572
0.0941143
0.0999297
0.45268
1
0.380621
1
0.206384
0.498506
0.177534
0.217765
0.276581
1
0.0247593
0.0577671
0.072196
0.0191566
0.0910449
0.0325411
0.11068
0.129383
0.150426
0.197717
0.650361
0.0727503
0.744038
0.152668
0.104896
0.214492
0.14652
0.324408
0.239157
0.165471
1
1
0.172538
0.18133
0.0528044
0.0390827
0.0911989
0.114904
0.207754
1
0.284987
0.303534
1
0.019732
0.233231
0.0825241
0.066235
1
0.317785
0.0427583
0.352968
1
0.0772654
0.0664052
0.0938459
0.100873
0.291736
1
0.191668
0.584165
1
1
0.0942535
0.170794
0.0775535
1
1
1
1
1
1
0.664589
0.0653306
1
0.101669
1
1
0.0771066
1
0.131621
0.185154
1
0.0281897
0.0651862
0.0735029
0.0245322
0.0623339
0.0322467
0.398585
1
0.324811
0.0570543
0.13146
0.136933
0.0861863
0.0707957
0.0475097
0.0399014
1
0.109527
0.0267506
0.0230781
0.0205119
0.0185746
0.305118
0.0307714
0.321696
1
0.067808
0.0613834
0.1132
0.0489274
1
0.217891
1
1
0.0962315
0.109714
1
1
0.19676
0.563456
0.05657
0.0479041
0.0617057
0.0349694
0.0419932
0.0440603
0.136011
1
0.0364177
1
1
1
0.161513
0.039491
0.433777
0.411914
0.462935
0.0510865
0.368116
0.520809
0.212866
0.365256
0.232801
0.12945
0.0806386
0.118912
0.148639
0.289871
0.417658
1
0.0658217
0.3431
0.278533
0.0575173
0.272617
0.335793
0.533096
0.324647
0.416391
0.483281
0.442698
0.0675312
0.293638
0.487441
0.107981
0.295728
0.142787
0.234044
1
0.531671
0.0335149
0.0409567
0.447567
0.359912
0.460616
0.540271
0.411229
0.0325156
0.197686
0.379616
0.059406
0.291553
0.227465
0.191233
0.164307
0.2892
0.213378
0.210134
0.0538397
0.0709228
1
0.342119
0.0525013
1
1
0.236034
0.621652
0.0522502
0.0902064
0.091365
0.0919949
0.398658
0.120104
0.090642
0.399531
0.244756
1
0.0817771
0.0861724
1
0.451115
0.0706616
1
0.0233343
0.175674
0.0403359
0.532884
1
0.128847
1
1
1
1
0.152103
0.848603
1
1
1
1
1
0.0947448
0.0925167
0.0904697
0.501287
0.199727
0.0921914
0.316497
0.0972894
0.535849
1
0.184079
0.183433
0.109432
1
0.0638919
0.0802953
1
0.197962
1
0.0376369
1
0.37216
1
1
0.42939
0.410406
1
0.0481176
0.260305
0.126535
0.0751361
0.250044
0.0688987
1
0.108982
1
0.0585503
0.268359
0.0443011
1
0.265258
0.475504
1
0.0882952
0.214671
0.201121
0.102654
0.100478
0.170324
0.16405
0.101438
0.21964
0.118709
0.205714
0.262254
0.2879
0.367662
0.0331958
0.343162
1
0.16025
0.085621
0.139625
0.102229
0.0497186
0.274291
0.0724123
1
1
0.0546675
1
0.0989026
0.262005
0.0473063
0.352557
1
0.0860998
0.111962
0.147959
0.147804
0.546245
0.504547
0.619634
0.109709
0.327082
0.645971
0.110766
0.383183
0.315204
1
0.163504
0.0330658
0.0701123
0.204118
0.0456115
0.194718
0.326717
0.283567
0.0509475
1
0.20219
0.201172
0.310221
0.0913091
0.0818501
0.026924
0.172407
0.0321659
1
0.0212517
0.0341636
0.0433172
0.48637
0.366626
0.491697
1
0.220217
0.197225
0.163404
0.229162
0.271438
1
0.0984068
0.0294272
0.0649351
0.0668351
0.0537862
0.0388842
0.121429
0.26568
0.151298
0.188693
0.344988
0.156224
0.193194
0.0905267
0.155504
0.199175
0.157403
1
0.447477
0.146454
1
0.103676
0.12339
1
0.131899
0.320772
0.300291
0.205219
0.333495
0.209532
1
0.33796
1
0.955358
0.956491
0.890022
1
0.83003
0.584101
0.496716
0.55842
0.0528067
0.423531
0.664105
0.184873
0.349333
0.55293
1
1
0.0962644
0.398066
0.369635
0.0848686
1
0.270299
0.061948
0.129035
0.0409733
0.128164
0.0661733
0.0581765
1
0.0734033
0.221706
0.266148
0.0753271
0.0657209
0.09032
0.0665652
0.128788
0.162102
0.0638915
1
0.0786295
0.103684
0.0793506
0.084828
0.0658571
0.0900007
0.0895451
0.091058
0.502104
0.142623
0.0907212
0.221001
0.1317
0.102922
0.305423
0.18491
0.0509176
0.350838
0.962237
0.0523795
0.0622067
0.0999198
1
0.0569369
1
1
1
0.252412
0.110587
0.469829
0.531438
0.496138
0.0691928
0.298118
0.53906
0.166514
0.347117
0.588148
1
0.0570277
1
1
0.0846194
1
0.0473345
0.0458915
0.0950221
0.141097
1
0.0225801
0.0281268
0.0162405
0.00243116
0.377677
0.32417
0.0594703
0.0860737
0.188628
0.267578
0.112415
0.086645
0.257071
0.0553695
0.291237
1
0.042079
0.0415038
0.0398273
0.0655912
0.22613
0.0578454
0.209358
0.0365171
0.0228129
0.0487075
0.0423657
0.0518847
0.318779
0.223084
1
0.0673336
0.184614
0.0857862
0.311567
0.209806
0.345951
0.314578
1
1
0.164731
0.111136
0.126416
0.119729
0.193408
0.221007
0.0379959
0.0730528
0.0600934
0.112589
0.0849149
0.0290062
0.127289
1
0.0719576
0.0306232
0.0210707
0.0216669
0.0456435
0.0405094
0.367759
0.0545153
0.318851
1
0.105081
0.0745422
0.104758
0.0528969
0.11905
0.115669
0.160515
0.498995
0.11683
0.122696
0.12447
0.0740377
1
0.252832
0.488827
0.0987217
0.174267
0.339688
0.111636
0.294642
0.0725635
0.133684
0.171216
0.0855938
0.0859034
0.0577933
0.0374254
0.0343845
1
0.0461353
0.168505
0.0597318
0.0284032
0.0448777
0.0374087
0.064551
0.303564
1
0.257951
0.0421792
0.149671
0.0968508
0.102936
0.0824361
0.334151
0.34965
0.048026
0.0515825
0.186067
0.208885
0.0457356
0.0640999
0.22413
0.186401
0.269096
1
0.0992136
0.0753574
0.157081
0.460922
0.282846
0.302798
0.262558
0.0515107
0.112779
0.225152
0.058732
0.138838
0.501826
0.514058
0.623062
0.0826454
0.268603
0.573746
0.222685
0.438186
0.0923457
0.0638723
0.0695521
0.363203
1
0.0671415
1
0.0906073
1
1
0.286813
1
1
1
1
1
0.24407
0.212923
0.0400152
1
0.166131
0.105783
1
0.0795378
0.227399
0.0551892
1
1
0.108452
1
1
1
0.24949
0.0194229
0.259542
1
0.0882981
0.0419036
0.13252
0.0451244
0.418361
0.489607
0.0970791
0.0550193
0.223372
0.282575
0.0920911
0.0954451
0.285985
1
0.259371
0.0535741
0.0912323
0.113296
0.0678693
0.0269455
0.643343
0.716036
0.548856
0.0340381
0.339079
0.545969
0.176839
0.440112
0.356581
0.417203
0.168806
0.0489465
0.165244
0.264733
1
0.0663365
0.157431
1
0.176449
1
0.203508
0.185667
0.188486
0.174392
0.188203
0.110761
0.209455
1
0.0415372
0.0639072
0.0991928
0.0790449
0.192698
1
0.234791
0.0239119
0.0716101
0.0913789
0.0174602
0.0358024
0.148087
1
1
0.0548007
0.131553
1
0.175075
1
1
0.188448
0.0378348
1
1
0.0188575
1
0.0223185
0.106142
0.0929188
1
1
0.152886
0.189822
0.736299
0.579684
0.0924207
0.047495
0.0375275
1
0.0391938
0.0244026
0.0271133
0.0242867
0.399179
0.0295527
0.345127
1
0.0780319
0.0630298
0.161407
0.107659
0.709333
0.778593
0.591629
0.091154
0.572882
0.670195
0.2829
0.490667
0.579683
0.554288
0.399676
0.369547
0.333797
0.521041
0.124117
0.264761
0.0775583
0.230092
0.190944
0.0532876
0.58779
0.19494
0.164607
0.100967
1
1
0.246692
0.216884
0.0283695
0.0405939
0.1192
0.103817
0.0447164
1
0.293034
0.0781725
0.0388603
0.258008
0.0551814
0.0669354
0.166621
0.0418771
1
1
0.053724
0.0394175
0.0253563
0.0264853
0.376339
0.0855139
0.1282
0.0618929
0.0403218
0.0801106
0.0829318
0.0806762
0.0920993
0.0903211
0.0925466
0.249938
0.152587
0.0921639
0.403838
0.156827
0.0903427
0.237072
0.145345
1
0.0831057
0.209954
0.127317
0.249829
0.688784
0.683493
0.375855
0.0798935
0.533459
0.735324
0.223411
0.327138
0.329496
0.408973
0.389069
0.0218058
0.182573
0.296245
0.0654462
0.175231
0.593799
0.58503
0.372345
0.0693004
0.309059
0.449276
0.133784
0.285971
0.090399
0.090504
0.0906175
0.783564
0.236451
0.0909181
0.341497
0.119006
0.180195
0.440136
1
0.0647429
1
1
0.0704059
0.136908
0.507185
1
0.309893
1
0.163034
1
0.164593
0.112653
0.254556
1
0.356933
0.0296271
0.0891814
0.096138
0.0789271
0.0555995
0.0548927
1
0.148079
0.0371335
0.0809362
1
0.0818134
0.0459128
0.279524
0.0737738
0.157455
1
0.105929
0.0808503
1
0.0486458
0.570003
0.487046
0.262915
1
0.597317
0.348468
0.629956
0.282846
0.0570308
0.359753
0.283069
1
1
0.208229
1
0.0593016
0.292731
0.257738
1
0.0562948
0.106414
0.176585
1
0.149969
0.0607115
0.0849952
0.0460785
0.0317149
0.115606
0.0969071
0.0460147
0.0698342
0.405433
0.669612
0.51071
0.197911
0.203554
0.466396
0.0579673
0.305525
1
0.255887
0.186136
0.0451606
0.323021
0.22764
0.0873934
0.151432
0.10817
1
1
0.0590098
0.0467984
0.0582419
1
1
0.069543
0.809009
1
0.228604
0.752895
0.683918
0.354441
0.707873
0.358675
0.57224
0.072101
0.0941457
0.206585
0.190584
1
1
0.495076
1
0.361585
0.0836482
0.180991
0.111211
0.133697
0.076231
0.106193
0.014092
0.214616
1
0.0790404
0.029574
0.371875
0.0595816
0.220791
0.173583
0.188865
0.117842
0.176433
0.0761323
0.0599506
0.0614569
1
1
1
1
1
0.0362842
1
0.0396133
1
0.303071
0.179873
0.581055
1
0.0583674
1
0.0502008
0.197324
0.111189
0.349082
1
0.0559634
0.086958
0.112207
0.0908114
0.0960023
0.096536
0.094706
0.445317
0.119189
0.095935
0.284436
0.202299
0.044639
0.0331706
0.163578
1
1
1
0.120787
1
0.324092
1
0.830925
0.637527
1
0.622042
0.652135
0.822997
0.286268
1
0.313795
0.293713
0.0607717
0.124402
0.0995307
0.115539
0.0401312
0.187661
0.0696785
1
0.155347
0.119555
1
0.207776
1
0.0643592
1
1
0.0654616
0.0919424
1
1
0.130473
1
0.234681
0.287502
0.119111
0.140115
0.125924
0.173427
0.100663
0.55761
0.203046
0.322826
0.198107
0.326168
0.161902
0.398604
0.105263
0.0511038
1
0.0480917
1
1
1
1
1
0.0757065
0.167507
1
1
1
1
0.0494913
0.241177
0.0490871
0.336805
1
0.131815
0.10335
0.0652604
0.119125
0.138455
1
0.153233
0.0269731
0.048565
0.0476518
0.0228517
0.0134024
0.156503
0.056771
1
1
0.0517097
0.124884
1
1
0.0685641
1
0.110853
0.130925
0.0836171
0.202539
0.341431
0.148126
0.35454
1
0.586467
0.485105
1
0.910987
0.395697
0.848828
0.146381
0.15089
0.518783
0.380759
0.245653
0.301709
0.183295
0.240925
0.343952
0.0398422
0.317901
1
0.110332
0.0999342
0.125073
0.181405
1
1
0.217678
0.0685788
1
1
0.0617469
0.153989
0.426077
0.787367
0.549591
0.0551074
0.499168
0.654411
0.0646193
0.49306
0.0936354
0.0320626
0.16309
1
0.0961911
0.0719131
1
0.0316756
0.308401
1
0.314574
0.0328345
0.0839605
0.0765201
0.091131
0.0790149
0.32497
1
0.0714641
0.0627915
0.0899441
0.0600449
1
0.0743288
0.313342
0.256391
0.910686
0.0725569
0.223791
0.121483
0.982368
1
0.0903248
0.0906755
0.0905427
0.473589
0.277771
0.0908936
0.401454
0.122465
0.0886177
0.08871
0.0886331
0.33527
0.146983
0.0880511
0.212159
0.149062
0.0848908
0.0793699
0.0362692
1
1
0.0436347
0.0548862
0.0470143
0.420281
0.38026
0.0676668
0.0486965
0.341961
0.207174
0.0905993
0.0834996
1
0.248628
0.0449776
0.0372898
0.0370701
0.0860882
0.0422292
0.0551064
0.225852
0.039398
0.049265
0.71739
0.0866924
0.0476828
0.0488313
0.0401344
1
1
0.289351
1
0.7508
1
0.557822
0.415805
0.653076
0.442207
0.462641
0.0338212
0.352421
0.539018
0.176597
0.20072
1
0.035839
0.205731
0.0828759
1
0.042029
1
0.043347
0.175501
1
0.0908368
0.0635763
1
1
0.168242
0.358279
0.0877843
0.0882541
0.0881459
0.708147
0.208009
0.0879074
0.227138
0.133951
1
0.761466
0.912872
0.0877575
1
1
0.627036
1
0.0518295
0.117248
0.0839132
0.031873
0.0362537
0.21756
0.0505482
0.0954526
0.0513099
0.109508
0.165672
0.0173556
0.0354254
0.0418303
0.0286609
0.0351034
0.169971
0.74185
0.091922
0.436802
0.294561
0.272174
0.236374
0.196834
0.48512
0.218478
0.38387
0.298343
0.411066
0.295381
0.335074
0.306889
0.416313
1
0.432445
1
0.601595
0.584764
0.527021
0.574936
0.123291
0.339989
0.132964
1
0.269979
0.315272
0.184839
0.330553
0.493664
0.370392
0.481076
0.0421914
0.250341
0.488899
0.110321
0.28442
1
0.199688
1
0.0819627
1
0.0645049
0.0692433
0.0346604
0.124699
0.312923
1
1
0.125792
0.497481
1
1
0.106106
0.0457111
0.142991
0.265076
0.0831369
0.0589751
1
1
0.0697472
1
0.130276
0.412986
0.0454844
1
0.0452818
0.104049
0.29191
1
0.444098
1
1
0.24175
1
0.308337
0.379467
0.015167
0.264928
1
0.111284
0.0701865
0.0978979
0.0531711
0.0344022
1
0.059334
0.160248
1
0.135576
1
1
0.21926
0.846576
0.140001
0.446408
0.712574
0.31939
0.252816
0.235874
0.431916
0.334784
1
0.612228
0.19285
0.386165
1
0.556731
0.0216481
0.042281
0.0791386
0.0419289
0.0409944
1
0.0382544
0.0568044
0.411825
0.234866
0.477118
0.156725
0.249689
0.294463
0.152028
0.278735
1
1
0.070845
0.0292961
1
1
0.276689
0.0782173
0.582416
1
1
0.0516311
0.822783
0.731131
1
1
0.259894
0.22523
0.363886
1
0.0828586
0.130252
0.119409
0.106834
0.282851
0.0237475
0.366363
1
0.0858389
0.0611894
0.148495
0.117723
1
0.765856
1
1
1
1
1
0.0457386
0.0266066
0.117476
0.123625
0.0258035
0.0393154
0.0821923
0.0311039
0.0428566
0.272456
0.377607
0.0801753
0.0887311
0.304362
0.263071
0.234144
0.23765
0.605992
0.57272
0.446329
0.283694
0.39611
0.504152
0.436492
0.534493
1
1
1
0.0188846
0.0424236
0.0410044
1
0.0440669
0.245151
1
0.0365162
1
1
1
0.037674
0.0642934
0.149398
0.403371
1
0.0152498
0.0534207
0.0418729
0.0191146
1
0.112181
1
1
0.0294146
0.0501884
0.182099
0.028283
1
0.128794
1
0.229029
1
0.144808
0.0842378
1
0.0419848
0.116237
0.28344
0.107683
0.108522
0.238701
0.277758
0.124056
0.190232
0.231117
0.0115666
0.302932
0.189011
0.0676921
0.0305597
0.118247
0.0362354
0.296785
0.173393
0.0619016
0.0597107
0.185361
0.0936189
0.0686546
1
0.148696
0.32147
1
0.098711
0.119228
0.108459
0.221573
0.1559
0.160113
0.0517735
1
0.0319051
1
0.0581214
1
0.0894182
0.186279
1
0.0420144
1
0.101583
1
0.100278
0.0610768
0.122312
1
0.213635
0.797156
0.0357732
0.548649
0.0296572
0.297558
0.254338
0.187696
0.721199
0.222148
0.302255
0.235081
0.376955
0.387726
0.579854
0.0962537
0.360847
1
0.217569
0.128367
0.170598
0.137272
0.219773
0.334484
1
0.0349005
0.080963
0.137282
0.123137
1
0.25606
0.154991
0.0878002
0.0970349
0.0617046
0.122125
0.0772313
0.0475375
0.195857
1
0.194785
0.0341963
0.0561213
0.0582609
0.0750737
0.0321094
0.0538192
0.0315727
0.160408
0.0528256
0.0760814
0.0372499
0.0638809
0.0688273
0.0629239
0.0511027
1
0.0738948
0.0604773
1
0.0690214
0.216753
0.271974
0.238248
0.168112
0.0677125
0.110785
0.169832
0.0692991
0.0743942
1
0.0370691
1
0.0555475
1
0.0323538
0.0851883
1
0.169279
1
0.232004
1
0.0682017
0.0753593
1
0.0526293
1
0.0269424
1
0.0283247
0.0354179
1
1
1
0.351804
0.0533436
0.379041
0.0273146
0.0864597
0.0802931
0.13106
0.135168
1
0.259826
0.0382079
0.0369789
0.03725
0.053298
0.0300533
0.0371183
0.7812
0.563806
0.484693
0.037328
0.350122
0.617103
0.0862135
0.267903
0.137604
0.149514
0.0400486
0.0510092
0.0567149
0.0227658
0.077139
0.0656577
0.545362
0.121128
0.135401
1
0.0505813
0.0967825
0.0930183
0.275848
0.211695
0.102813
0.0463093
1
0.0677593
0.0653791
1
0.0695138
0.0897565
0.09069
0.093775
0.84072
0.118942
0.091079
0.154249
0.136728
0.0803258
0.0250858
0.143154
1
0.0410196
0.0158418
1
0.0386344
1
1
1
1
1
1
1
1
0.0407743
1
1
1
0.0333079
1
0.452374
0.553414
0.400984
0.40786
1
0.110806
0.192672
0.189071
0.164167
1
0.0812725
0.315433
0.411864
0.081912
0.183622
0.269224
0.170613
0.233658
0.380733
0.302079
0.150431
0.070431
0.379706
1
0.0480502
0.0764077
0.0688495
1
0.0892647
0.0997206
0.0452499
0.0902807
0.0305126
0.0349557
0.0881521
0.0491995
0.268147
0.0936613
0.0495462
0.0490674
0.0515913
1
0.538836
0.333228
0.159722
0.272554
0.381438
1
0.200065
1
1
0.0624543
0.402726
0.107151
1
0.116993
0.11287
0.143396
0.524635
0.757474
0.652631
0.0657542
0.496922
0.636695
0.364469
0.563119
0.365498
0.249058
0.165025
0.132164
0.216362
0.149102
0.0863517
0.0678277
0.147869
0.2478
1
0.0427245
0.0661844
0.0247602
0.0427993
0.0756494
1
0.417993
0.266703
0.221817
1
0.665261
0.819632
0.719612
0.755102
0.0317299
0.218187
0.0494643
1
0.0410701
0.0518102
0.0614443
0.518074
0.63453
0.521775
0.0260145
0.379536
0.493723
0.0503483
0.291508
0.0662479
0.0554279
0.239666
1
0.0613852
0.0977077
0.222915
0.234583
0.0692583
0.244166
1
1
0.0903801
0.158297
0.531635
0.192167
0.286513
0.345562
0.267881
0.0428778
0.128072
0.188359
0.0812378
0.0691866
0.126618
0.33591
1
0.101044
1
1
1
1
0.69128
0.556669
0.551412
0.354522
0.36828
0.646105
0.182176
0.439686
0.311405
0.0524946
0.0843053
0.0664335
0.0939027
0.0679619
0.112304
0.0463401
0.58406
0.594419
0.543787
0.0438307
0.342808
0.590805
0.0963302
0.304359
0.5672
0.731947
0.51251
0.030497
0.394646
0.555017
0.0500978
0.256066
0.711716
0.772627
0.562818
0.0529956
0.410593
0.618471
0.202851
0.366475
0.466453
1
0.268919
0.0612493
0.192878
0.0587035
0.171901
0.120262
0.116367
0.0900361
0.537284
1
0.415736
1
0.446445
0.816905
0.315016
0.267398
0.059226
0.0222039
0.0821588
0.195593
0.0421456
0.048089
0.430212
0.0325157
0.436308
1
0.0981572
0.0644526
0.12018
0.178106
0.59238
0.67672
0.524819
0.0656791
0.433834
0.488861
0.127508
0.291721
0.40541
1
0.270561
0.0254271
0.128513
0.100169
0.0523969
0.0444041
0.453821
0.482365
0.0475699
1
0.269207
0.309146
0.0669177
0.12261
0.256465
0.325018
0.0799366
0.0914491
0.205289
0.264054
0.139429
0.161804
0.526131
0.688852
0.529406
0.040063
0.283598
0.581465
0.055273
0.310616
0.0622129
0.0586426
0.409201
0.0567522
1
0.149076
0.0778474
0.142188
0.187691
0.104091
0.0252722
1
0.0855658
1
0.0254481
0.0332639
0.179949
0.264287
0.224356
0.14427
0.0486086
0.0681135
0.0650779
0.03833
0.337285
0.329067
0.113465
0.0365031
0.196555
0.126283
0.0592579
0.0575952
0.307196
0.368476
0.034935
0.0512856
0.119083
0.104643
0.0543565
0.0402991
0.414562
1
0.359948
0.0143128
0.120229
0.11201
0.0468971
0.0666975
0.0875884
0.0882916
0.0870842
0.551649
0.220825
0.0882764
0.671116
0.125277
0.389229
0.127748
1
1
0.069304
0.224189
1
1
1
0.301033
0.222595
0.05196
0.0990722
0.0331145
0.0542764
0.0689093
0.398477
0.10757
0.102684
0.0858528
0.092345
0.118886
0.0832491
0.0755534
0.185412
1
0.0527816
1
1
1
1
1
1
1
1
1
1
0.100451
1
1
0.0391311
1
0.146216
0.0153224
0.0507483
1
0.0438375
0.0613679
0.135234
0.0942998
0.0461907
0.121267
1
0.0616776
1
0.0424572
0.111957
1
0.03407
1
1
1
0.0236872
0.0465391
0.314683
0.0430372
0.297332
1
0.0664089
0.0728708
0.154271
0.103624
0.274674
0.23769
1
0.153362
0.121433
0.138431
0.624028
0.184148
0.450269
0.0825683
0.17657
0.318589
0.450436
0.431792
0.406805
0.267722
0.122513
0.329606
0.328405
0.0637909
0.10728
0.0366551
0.0903883
1
0.533262
0.424292
0.518663
0.0652923
0.3658
0.484063
0.284105
0.350431
0.159786
1
0.125897
0.168693
0.0452784
0.0691679
0.0498536
0.0134035
0.385668
0.399381
0.0637918
0.0750932
0.260908
0.242754
0.11683
0.10141
0.675996
0.796807
0.599531
0.0579328
0.419068
0.702354
0.284513
0.505633
0.648824
0.651473
0.388436
1
0.231529
0.189523
0.250833
0.116183
1
1
1
0.0380439
0.0607399
0.0787199
0.0513
0.0696202
0.0712677
0.055841
0.238928
0.107546
0.133484
0.0668552
0.094547
0.0865709
0.316376
0.367542
1
0.0877755
0.136672
0.243529
0.0618296
0.16611
0.19561
0.0410506
0.326131
0.0270662
0.0774975
0.0593484
0.083793
0.0649644
0.134273
1
0.0289565
1
0.0150581
0.0161666
1
0.0312368
0.252991
0.0768257
0.0795548
0.0937745
0.0804894
0.146778
0.0657419
0.167216
0.306242
1
0.479985
1
1
1
0.0322632
0.0792972
0.290849
0.210665
0.0719375
1
1
1
1
0.0874809
1
1
1
0.113193
1
0.382202
1
1
0.103765
0.0791677
0.0873662
0.11826
0.0646295
0.0603427
0.118909
0.0704327
0.263188
0.348354
0.369705
1
0.0617622
0.0867296
0.103266
0.0951031
0.450309
1
0.362483
0.0540608
0.154382
0.121213
0.0822227
0.0919016
0.497306
0.373398
0.0430369
0.505141
0.572803
0.237372
0.434358
0.240724
1
0.0205432
0.193142
0.0304346
1
1
0.0336037
0.0923955
0.226847
1
0.279877
1
0.0557651
0.0916045
0.109151
0.0953543
0.485119
0.448885
0.231307
0.0388525
0.249476
0.221991
0.063609
0.219871
0.189557
0.658305
0.182261
0.489422
0.0575469
0.0647798
0.0569396
0.0296946
0.521536
0.46269
0.554788
0.0622918
0.211033
0.62751
0.226758
0.423596
1
0.856241
0.253049
0.28154
1
0.509972
0.938538
0.729578
0.211742
0.270016
1
0.0425448
1
1
1
1
0.304026
0.529756
0.318707
0.124277
0.104166
0.219003
0.112996
0.203125
0.485378
1
0.0709865
0.13838
0.647433
0.872443
0.318018
0.573307
1
0.448256
0.607623
0.163118
0.301328
0.399939
0.318132
0.454441
0.429522
0.497912
0.0485404
0.065331
0.146988
0.252787
0.0683001
0.093
0.732367
0.669356
0.705164
0.0380179
0.51265
0.613552
0.185664
0.327764
0.20302
0.0419305
1
1
1
1
0.661858
1
0.770027
0.319529
0.713671
0.463402
1
0.753699
0.518825
0.864325
0.118943
1
0.186807
0.34695
0.0516731
0.0527898
0.0629489
0.0515562
0.528206
0.644325
0.592929
0.0357223
0.35453
0.485916
0.029465
0.277615
0.579348
0.57991
0.487646
0.0639004
0.366809
0.585789
0.251518
0.293245
0.190019
1
0.0573701
0.0359269
0.0366485
1
0.0701309
0.218817
0.321416
0.347491
0.042691
1
0.169481
0.156069
0.187838
0.0646507
0.677532
0.647284
0.623785
0.0770041
0.362255
0.65152
0.0627918
0.340659
0.251781
0.0379677
0.367465
1
0.0567655
0.120245
0.0936651
0.10747
0.0825333
0.428423
0.464981
0.0403176
0.121117
0.312982
0.0997065
0.225216
0.496599
0.0337782
0.416967
1
0.0858853
0.0903437
0.132972
0.132209
0.434522
0.0803769
0.183424
0.221423
0.659352
0.0826948
0.0239519
0.0377075
0.503086
0.768193
0.466197
0.380885
0.446035
0.523235
0.427822
0.38869
1
0.0312745
0.18287
0.150993
1
0.0398219
1
0.133971
0.52543
1
0.352547
0.0901444
0.0678809
0.126433
0.0362961
0.0826453
0.229382
0.316929
0.113698
0.0233559
0.174973
0.0790766
0.0294192
0.0307252
0.319107
0.456774
1
0.041471
0.239062
0.107191
1
1
0.0481882
0.78404
0.190875
0.0232636
0.0390335
0.0380527
0.0447317
0.0577063
1
1
0.202203
0.0535109
0.0331359
0.0545488
0.0667426
0.0561005
0.664645
0.667646
0.611486
1
0.37041
0.637122
0.154857
0.366501
0.39546
0.279043
0.306756
0.173758
0.238505
0.14034
0.0569644
0.048525
0.465892
0.59842
0.40485
0.021378
0.3198
0.466989
0.0379491
0.205745
0.23821
1
0.0963909
0.0493183
0.088168
0.118679
0.0751548
0.12976
0.163186
1
0.168114
1
1
1
1
1
0.614664
0.668737
0.57894
0.0417716
0.422011
0.659171
0.231064
0.452861
0.146816
0.153033
0.290218
0.0354734
0.060715
0.0547691
0.0376018
0.0879739
1
1
1
1
1
1
0.507281
1
0.0875733
0.0516624
1
0.186236
0.148407
0.124107
0.195623
0.161392
0.277232
0.113134
1
0.0537208
0.0730747
0.0921841
0.0712662
1
0.650684
0.634934
0.419942
0.0244992
0.334335
0.595264
0.0389533
0.210236
0.0886
0.0914384
0.090337
0.899038
0.215028
0.090507
0.218523
0.13628
0.725415
1
0.762041
1
1
1
0.778536
0.909225
0.674942
0.259097
0.296858
0.0443795
0.250749
0.374949
0.0984739
0.236241
0.0900111
0.08901
0.0890337
0.644597
0.148987
0.0887328
0.147823
0.110966
0.451182
1
0.461324
0.205872
0.121681
0.13438
0.172682
0.135392
0.754333
0.699963
0.682478
0.0649807
0.506145
0.661335
0.238459
0.515275
0.234378
0.091852
0.291886
0.0665715
1
0.572582
1
1
0.262261
1
0.0305121
0.0375535
1
0.576101
0.0793797
0.0651426
0.152677
0.0787979
0.0804016
1
0.0302127
0.104484
0.0284369
0.129972
0.555321
0.688292
0.497562
0.0709152
0.307837
0.544878
0.0991854
0.306257
0.539714
0.687837
0.636705
0.089799
0.562128
0.686968
0.366964
0.550414
0.232257
0.224759
1
0.0337955
0.0731698
0.134859
0.0486081
0.0566851
0.0919875
0.198207
1
1
0.0392216
0.0672817
0.0313771
0.0534225
0.150012
0.0428423
1
1
0.0759739
0.0923738
1
1
1
0.535689
0.252269
0.0744282
1
0.111739
1
0.0888816
0.0683539
0.0687283
0.0704331
0.811268
0.108981
0.0676708
0.127666
0.0984711
1
0.874328
0.0397643
0.0679844
0.578541
0.345469
0.118475
0.0603344
1
0.126988
1
0.0254829
1
1
0.0219476
1
0.210714
0.288761
0.107817
0.0458124
0.194087
0.108842
0.0569726
0.0898701
0.241373
1
0.278401
0.046862
0.035126
0.0932297
0.0560656
0.0800655
0.218171
0.179382
0.15156
0.0679282
0.0911741
0.0652423
0.0737385
0.0525653
0.0499882
0.154672
1
0.069473
0.0294376
0.0582136
0.030678
0.0466046
0.62907
0.627317
0.505221
0.0386764
0.481497
0.737668
0.198042
0.308343
0.55908
0.670008
0.572782
0.0490283
0.352334
0.565609
0.0954764
0.280588
0.538307
0.078555
0.521788
1
0.156255
0.0962262
0.14984
0.151466
1
0.0500939
0.203649
1
1
1
1
0.0835574
0.391606
1
0.307376
1
0.0820564
0.0936074
0.12341
0.101277
1
0.0371437
1
0.0427625
0.36881
0.11525
0.347403
0.092912
0.0752886
0.480391
0.360718
0.0400246
0.0716037
0.380208
0.0617343
0.546196
0.627237
0.797018
0.729508
0.105484
0.536259
0.678862
0.382149
0.553689
0.330596
0.401528
1
0.0411007
0.0909994
0.215762
1
1
0.362779
0.0685813
0.438828
1
0.0899949
0.172277
0.141719
0.139964
0.442992
1
0.311039
0.183475
0.30781
0.411749
0.326214
0.724876
0.210101
1
1
0.0861047
0.0613736
1
1
1
0.323762
0.364669
0.0530895
0.0510521
0.123352
0.25337
0.0579631
0.100849
0.205385
0.0407089
0.0792207
1
0.048155
0.0428986
0.0434986
0.0279224
0.151108
0.0588578
0.201448
0.0442719
1
1
1
1
1
0.425575
0.104194
0.125378
0.314556
1
0.0434375
1
0.0684265
0.01416
0.22262
1
0.0336508
0.0584813
0.0541251
0.0737899
0.339756
0.0478622
0.321115
1
0.124351
0.0789715
0.132186
0.090663
1
0.109736
0.0619724
0.0502758
0.0474182
0.0705063
0.057852
0.0663717
0.139769
0.289172
0.199036
1
0.193978
0.200408
0.302568
0.278449
0.567678
0.637141
0.666674
0.039271
0.41772
0.551645
0.173916
0.349186
0.94244
1
0.52636
0.837644
0.247506
1
0.333568
0.797444
0.144309
0.229181
0.299421
0.186187
0.216048
0.264304
0.216104
0.358503
0.352457
0.42213
0.0365856
0.057476
0.224107
0.421365
0.107075
0.0764354
0.637468
0.814628
0.720677
1
0.520882
0.733276
0.450722
0.525639
0.0341924
1
0.0348527
0.0717258
0.0445788
0.0206744
0.213092
0.0411432
0.526172
0.655406
0.639052
0.101647
0.348582
0.491658
0.146054
0.297812
0.495081
0.346777
1
0.0675724
0.258419
0.113575
0.0666556
1
0.120921
1
1
0.236056
0.162769
1
0.322692
1
0.096755
0.0987568
0.0989176
0.0715823
1
0.0977831
0.391017
0.162046
0.0787079
0.461857
1
1
1
1