/*--------------------------------*- C++ -*----------------------------------*\
  =========                 |
  \\      /  F ield         | OpenFOAM: The Open Source CFD Toolbox
   \\    /   O peration     | Website:  https://openfoam.org
    \\  /    A nd           | Version:  12
     \\/     M anipulation  |
\*---------------------------------------------------------------------------*/
FoamFile
{
    format      ascii;
    class       volScalarField;
    location    "102";
    object      p;
}
// * * * * * * * * * * * * * * * * * * * * * * * * * * * * * * * * * * * * * //

dimensions      [0 2 -2 0 0 0 0];

internalField   nonuniform List<scalar> 
44296
(
-3.53644
-1.55737
-0.488555
0.258834
-2.95124
-0.811871
-0.31628
0.112151
1.32569
0.394308
0.0598236
0.136464
0.74992
0.433957
0.455927
0.191402
-1.32188
1.86102
-0.769547
-0.883239
-2.05124
-0.597205
-2.60939
-2.16606
-0.945957
1.21885
0.698163
0.303747
-1.30888
-0.333237
-1.19246
0.381556
0.578507
-1.21758
-0.283188
1.71407
0.312698
-0.714911
0.460587
-0.351054
0.207742
0.608975
0.317865
0.222749
-0.126023
-0.367295
-0.0377136
0.275153
-0.587893
-0.943694
-1.64626
-0.288792
-0.411302
-0.777685
0.165233
-0.707827
-0.793937
0.00395112
0.440252
0.0858591
-0.862953
-0.181708
-0.587399
0.211009
-0.00572985
0.150301
-0.109728
0.165033
-0.235181
-0.0692054
0.0188396
-0.219229
4.37832
0.862896
1.90912
1.05834
2.3072
1.6462
2.2222
1.6362
3.3275
3.40063
1.02436
0.941788
1.33218
2.21645
1.40079
1.45768
1.23252
1.88484
1.18739
1.88895
1.85395
1.4435
1.42488
1.55748
2.31835
1.88138
1.11921
0.868005
2.49259
2.3206
1.02023
1.6317
-0.575834
0.0378625
0.0266151
-0.188145
-0.447479
-0.216063
-0.224522
-0.392253
1.61512
-0.492083
-0.030877
-0.97204
0.40105
0.184887
-0.511711
-0.57688
1.78295
1.58587
1.77794
1.48334
1.68316
2.43094
1.67046
2.01167
-0.0186118
0.635095
0.224295
0.0519524
1.17503
0.0291155
0.162055
-0.347376
-0.359809
0.167831
0.950843
-0.187516
-0.0240033
-0.378205
-0.0685623
-0.089118
-0.448103
-0.109947
-0.312111
0.289302
-0.152121
-0.274222
-0.316985
-0.155182
0.0523626
0.221881
-0.0348286
-0.223908
0.00347027
-0.187317
-0.181535
-0.14135
1.88842
0.656541
-0.15512
-0.837774
0.381138
0.426908
-0.213187
-0.599963
1.59972
1.3766
0.813685
0.724066
1.77783
1.81317
0.803791
0.834194
-0.0653918
0.747763
0.422857
-0.724157
-0.120926
1.39977
-0.872126
0.51858
2.3119
1.27259
1.82936
2.04046
1.31261
1.14143
2.11401
2.21827
0.133817
0.0154504
-0.517591
-0.478848
0.0889373
0.0614593
0.035981
-0.00742222
0.226468
1.44523
0.990049
0.769809
0.390296
1.14349
0.768826
0.956009
1.272
0.0894079
0.0716431
0.421562
0.707619
0.424969
0.42963
0.119257
2.10096
1.28381
1.49684
1.80425
1.1176
1.37271
1.24664
0.973431
3.06052
2.15814
1.13402
1.8583
1.95373
1.89281
2.07732
1.39372
2.45773
1.69118
1.52465
1.63959
1.89423
1.63042
1.52315
1.46536
-2.43323
-3.57346
-0.122726
-0.190845
-3.2655
-3.54552
0.105554
0.175627
2.06227
2.66618
1.86636
1.52336
1.1109
2.26378
1.02349
1.50955
0.353692
0.585809
1.39633
-0.513909
-0.240062
0.969259
-0.133161
0.545531
-0.255644
0.257498
0.195329
0.219293
-0.531834
-0.240212
-0.441147
0.187759
0.31552
0.393004
-0.163512
0.0683964
0.203095
0.324525
0.231203
0.143428
0.452354
0.185775
0.420344
0.199066
0.477044
0.510961
0.0836989
-0.162697
-10.606
-8.73819
-3.76277
-5.15776
-7.73492
-7.89657
-3.24567
-4.05685
2.36216
2.60543
1.52217
1.34462
2.75445
2.95129
1.91743
1.22753
2.23909
1.78109
2.27674
1.69316
1.77122
1.86446
1.50138
1.8206
1.43037
0.120726
0.263127
0.446299
-0.363993
0.0294862
0.0607757
1.34642
0.638518
0.861788
-0.163837
-0.0420405
1.7356
0.942072
0.276619
0.150822
-0.524306
-0.519436
-0.155641
-0.399509
-0.598457
-0.529974
-0.324107
-0.374748
1.73084
0.261239
-0.346623
-0.109442
1.01217
0.348575
0.554342
-0.216666
1.26191
1.50565
1.21883
0.735587
0.783203
0.986911
0.833029
1.04494
1.35941
-0.165863
-1.18677
-1.45182
-0.379754
-0.486974
-2.40415
-2.40763
1.02951
1.44971
1.10776
0.92942
0.814033
1.30981
0.93408
1.37465
-1.70827
2.09325
0.0380242
1.23733
1.76411
0.795185
0.940892
0.836776
2.79333
2.99808
1.79499
1.93871
1.96696
2.18907
2.14694
2.29555
0.0141465
-0.276268
-0.0343507
-0.133131
-0.232802
0.192486
-0.236106
0.257164
2.66962
0.932204
1.42784
0.581433
0.775291
0.968915
0.785303
1.32615
0.0719528
0.178275
-0.0515273
-0.284569
-0.29267
-0.0664297
-0.180999
0.142707
0.137125
-0.393085
0.236105
-0.477009
-0.724655
-0.878988
-0.76892
-1.05465
2.58148
1.55957
1.38874
0.793993
1.58543
1.46092
1.61793
1.48654
0.75872
0.931414
1.24776
0.896026
0.343586
0.502867
1.50615
0.608203
0.924689
-0.014305
0.360421
-0.00938677
0.852544
0.608805
1.05825
0.175978
0.716878
0.758817
0.667464
0.165531
1.15197
3.48175
0.0648925
1.16856
1.1177
1.6291
1.95084
1.26695
1.16493
2.16445
1.3665
2.08776
-0.959091
1.78835
1.36284
3.37843
3.37494
3.15177
3.42553
1.392
2.06713
2.8372
0.924933
0.486063
1.02305
1.10737
0.713802
1.23053
-1.03642
-0.710392
0.0851159
-0.108518
-1.27084
-1.15306
-0.377026
-0.682765
-0.266922
2.69426
2.26632
1.41443
-0.509456
-2.17418
1.23302
0.920577
0.328895
1.70288
0.933724
0.330402
0.28762
0.707578
0.206757
0.454418
0.895469
5.42609
1.45755
1.95989
2.08374
1.6455
1.66689
1.58413
-1.22923
-0.281847
-0.254821
-0.0461452
-0.671754
0.432695
-0.791009
0.294113
-4.09693
-4.16062
-4.94875
-3.23814
-4.69809
-4.03036
-5.17173
-3.91058
-0.253918
-0.756565
0.48888
-0.251517
0.399213
-0.301451
-0.0853967
-0.947231
-1.00718
-0.634132
-0.253889
-0.465241
-0.442763
-0.221808
-0.431219
-0.174672
-0.149472
-0.641028
-2.4864
-0.886098
-0.833928
-1.16007
-1.12825
-1.40798
0.504153
-0.264355
-1.25577
0.199264
0.412945
-0.460644
0.122639
-0.683827
-0.130493
0.118483
0.291332
-0.353279
-0.0661667
0.621889
-0.0439952
0.132003
1.02626
2.20587
1.47114
2.06532
1.70515
1.35971
1.68734
1.78976
0.786309
0.715029
0.56753
0.503001
0.744897
0.600667
0.403602
0.646045
1.1127
1.7043
0.0621812
0.619785
1.9778
1.04762
0.929963
0.8181
-0.821362
0.458232
0.26379
-0.557646
-0.701886
-0.0315659
-0.695725
-0.55648
1.16556
0.770131
1.01075
0.106717
0.953256
1.07252
0.753203
0.802463
0.483688
0.372437
0.726661
1.6445
0.295229
0.26413
0.976913
0.186173
0.13433
-0.0531823
1.19591
0.73299
1.27595
0.955404
1.50681
0.694284
1.19786
0.203778
0.576431
-0.72817
0.783765
0.316665
0.0661514
0.0754326
0.66914
2.62259
0.608495
1.35641
1.83942
1.14418
1.1343
1.11653
0.67257
0.297433
0.514726
0.813674
-0.218867
-0.137366
0.0959349
0.604912
-1.45004
-0.613055
-0.709273
-0.972592
-1.52311
-1.12938
-1.15733
-1.31682
1.55878
1.23009
0.411887
0.554081
1.08607
0.590898
0.564124
0.805024
1.34028
0.291798
1.08247
-0.423388
0.82083
1.01682
-0.290651
0.400122
-1.7503
-1.10151
-0.708645
-1.79772
-1.33235
-1.55859
-1.07205
-0.892448
-0.150472
0.0856261
1.82612
1.66514
0.638501
0.0599947
1.56994
1.48735
-4.16534
-4.56815
-4.66933
-2.67207
-3.87679
-4.98137
-3.56676
-4.33522
-0.693243
-0.0789847
0.161467
-0.668229
-0.640311
-0.77756
-0.543495
-0.44618
-0.903106
0.0457877
-0.801983
-1.30033
-1.85848
-0.925633
-0.92846
-1.22735
2.44424
0.0863325
1.78161
0.304095
1.54135
0.694473
1.48958
1.12207
-0.21873
0.547063
0.395193
0.663354
-0.592215
-0.0411406
-0.618926
0.849219
-1.02719
-0.630143
-0.761954
-0.700055
-0.49349
-0.648936
-0.797997
-1.08193
1.70983
0.264749
1.01132
-0.933718
0.477805
0.284823
-0.0905217
0.0318362
0.699231
-0.218836
-0.599933
0.990324
0.91604
0.834642
0.645222
-0.118736
-1.12244
-0.339929
-0.192344
-1.87425
-1.25106
-1.26767
-1.63885
-0.550412
-3.3836
-2.8072
-5.99728
-6.37397
0.0866655
-3.19496
-1.0292
-3.31407
0.405562
0.0166618
-0.261939
0.027244
0.788816
0.391673
1.06375
1.48432
-4.66895
-5.01332
-2.65337
-2.81112
-4.01748
-4.11432
-4.20323
-4.04591
-1.91997
-4.27184
-2.67749
-0.714101
-1.88359
-3.22079
-1.57336
-2.26565
1.29629
-1.82378
-3.65617
1.38975
-1.24966
-0.689953
-0.0682069
-1.76023
-2.8027
0.15996
-0.605292
-3.83051
-6.82358
-2.58444
-5.85691
-4.84854
1.1386
1.34061
1.14335
0.853157
1.98331
1.25158
1.99687
1.47454
0.15023
0.0525236
0.367638
0.211975
0.193163
0.060579
0.0745157
0.0759514
1.28806
1.63829
4.82752
1.50298
1.66317
1.23642
1.03245
0.445494
1.79174
0.735021
2.02793
1.28315
3.04993
2.20171
1.73368
1.16422
0.295346
0.414958
0.576367
-0.217422
-0.181279
1.86263
-0.92967
-0.512811
0.195542
0.703344
0.982286
0.0933864
0.584574
0.515515
0.561791
0.736679
0.109574
0.396624
-0.0131491
0.292582
0.0460908
-0.0433077
0.0836182
-0.0678989
-0.210721
-0.633617
-0.511283
-0.382726
-0.825721
-0.244883
-0.889083
-0.638005
1.06441
0.34325
0.500588
-0.196671
0.68366
0.794935
0.362359
0.236562
-0.422303
-1.11896
-0.606931
-0.331446
-1.58386
-1.83114
-1.25588
-1.58584
1.82788
1.57593
1.57241
1.1877
1.67665
1.21463
0.999448
1.26717
0.271114
-0.917489
0.305852
0.0260057
0.310332
-0.262267
-0.0152185
-0.259817
0.416397
1.04342
1.11013
1.0695
1.01088
1.59527
0.975537
1.27823
0.129227
0.248324
0.32985
0.514492
0.195167
0.0903521
0.395755
0.368344
0.504143
0.211196
-0.0228019
0.257842
0.792013
-0.568595
0.174668
0.0535814
0.429274
0.0201602
2.47122
1.62589
0.832432
0.494261
0.6784
0.553247
-0.511246
-2.65424
-0.866115
-0.908237
-1.43359
-1.44669
-0.953748
-0.766994
2.30271
1.33814
2.41416
0.637696
1.26138
1.93008
0.763874
1.41756
-4.89004
-1.68035
-4.58187
-3.60778
-5.72195
-4.78097
-5.22229
-5.22721
1.07853
1.72638
0.983525
0.852203
1.83988
2.31083
1.48947
1.15276
0.666405
1.96721
0.473465
2.43596
2.34478
1.79982
2.9488
2.47456
-1.85034
-2.71735
-0.541771
-1.08365
-1.8295
-1.94123
-0.260474
-0.290827
1.35254
0.457007
-0.0691069
-0.21889
0.711434
0.530562
0.141094
0.18146
1.00049
1.46517
1.93771
1.05869
1.18532
1.43373
1.5408
1.18405
-2.52294
-0.882645
-2.23383
-1.57397
-0.287193
-2.46252
-1.16679
-2.32181
-0.10351
0.237528
-0.44546
0.138934
-0.229476
0.180785
-0.396282
-0.0695655
0.20718
0.45132
0.105634
0.151708
-0.442614
-0.0736782
-0.113053
-0.131458
0.852375
0.977695
1.35939
1.70895
0.803928
0.259909
1.04011
1.15558
-4.6229
-3.23095
-4.92194
-3.25436
-4.14379
-3.94644
-4.1675
-5.79957
0.497829
-0.183385
-0.759779
-0.870881
-0.00328584
-0.119524
-0.454617
-0.796774
-0.512659
0.253702
-0.175449
-0.965711
-0.57048
-0.176646
-0.693708
-0.358991
-2.12085
4.88729
0.0189063
0.94592
-0.571708
1.0967
1.54302
1.05543
-0.416015
-0.07428
-0.339909
-0.55186
-0.058853
0.0623673
-0.356351
-0.367591
-0.0550647
0.0751915
0.313156
0.123006
-0.0309485
0.108946
0.333863
0.207666
0.459138
-0.311961
1.23107
0.362216
0.317343
-0.230002
0.324845
-0.185899
-0.144212
-0.125543
0.37551
0.170226
-0.142844
-0.141587
0.0322571
0.0251141
-0.308363
-1.02076
0.718697
-0.193118
-0.849585
-0.464226
0.253545
0.246368
0.112545
0.126083
1.28521
0.972596
0.457082
0.56184
0.946134
1.22606
0.801299
0.877285
0.835993
0.734287
0.304938
0.838917
0.945738
0.640538
-0.165823
0.12453
-0.100405
-0.0705307
1.00352
0.514947
0.318151
0.872441
-0.199294
-0.367596
-0.853221
-0.0595006
-0.0575529
-0.377987
0.00948611
-0.618707
1.8164
2.27166
1.82356
1.06579
1.41351
2.064
3.40735
2.73449
0.650826
0.493317
0.290739
0.414612
1.07241
1.79282
0.734331
0.710149
1.4755
0.449438
0.171135
0.132066
1.31832
0.510361
0.768244
0.0856454
0.840765
-2.8788
-1.42026
-0.790998
-1.1514
-0.951685
-2.00975
-1.74684
0.796859
1.23494
0.334823
0.23134
1.20478
0.844755
0.138643
0.25647
0.63633
0.18046
0.0872538
-0.141366
0.263225
-0.842691
-0.056624
-0.219642
-5.95913
-9.17366
-3.12698
-4.3102
-6.83626
-7.20955
-4.49442
-4.84019
1.83581
2.91129
2.71543
1.30699
1.40397
3.19095
0.858163
1.16855
-1.50919
0.223482
-0.0787206
0.809145
-0.104066
0.111564
0.371309
0.808537
0.116518
0.671398
0.361616
0.157437
0.583611
0.857294
0.496974
0.492048
-12.4004
-3.46804
-8.15597
-3.77976
-5.98108
-6.1031
-6.45237
-7.15135
-0.0827137
-0.0218586
-1.4101
0.31104
-0.0267977
-0.376332
-0.106539
-0.675906
-0.647002
-1.13378
-1.2813
-1.73273
-1.29496
-0.95225
-1.45996
-1.35547
-1.80009
0.525758
-1.65605
-0.340866
-0.668342
0.0135152
-1.06802
0.668296
2.15723
2.03374
0.957903
1.41827
1.59962
1.95304
1.36077
1.30219
-0.155829
-0.144728
-0.261434
-0.428494
-0.105679
-0.132422
-0.0727478
-0.255753
-3.66744
0.912223
2.19147
-1.29051
-1.58134
-0.669482
-2.45175
-2.30677
1.42754
3.11952
-2.48382
-0.330587
0.282262
1.70842
-1.13654
-2.04281
-6.13588
-3.72647
-2.49004
-2.12825
-3.1489
-4.12335
-2.55264
-2.78181
1.32454
1.24438
1.21318
0.556564
1.20955
1.2384
0.997134
1.46407
2.70602
1.65708
0.882261
0.985175
1.51118
2.02077
1.19864
1.18576
1.49567
0.305138
0.351856
0.793245
1.20376
0.837102
0.99162
0.672353
-7.25656
-1.86716
-1.71325
-1.75463
-2.51249
-2.50123
-1.49106
-0.351751
-0.130601
0.964715
-0.13754
-0.210712
-0.614925
-0.343691
-0.11976
-0.150497
1.10368
0.368898
1.81589
0.770754
0.360149
0.67858
1.60924
1.63362
5.09274
3.53548
1.74509
0.23592
2.20086
4.69647
0.262033
1.87787
1.28518
1.10992
1.65671
1.04688
0.95772
0.224913
-0.0123157
-0.547365
-0.718895
-1.08332
-0.440639
-1.75411
-1.11424
-0.835089
-1.20441
-1.15525
-1.94771
-0.582682
-1.06899
-0.362041
-0.352197
-0.899234
-1.09532
-1.10239
3.31841
0.425568
1.58045
2.30962
0.168714
1.03837
1.5935
2.13782
-1.44267
-0.46942
-0.234075
-1.59389
-1.67306
-0.73006
-1.38764
-0.879403
-1.35105
-2.14357
-1.58738
-2.07173
-1.95756
-2.32875
-2.18069
-2.82264
-0.0972507
-0.631415
-0.334555
-0.247971
-0.181137
-0.261592
-0.148903
-0.41751
0.0880054
0.00824709
0.535954
1.12118
0.0935761
0.208964
0.188396
0.343774
0.438627
1.32479
1.37015
0.931372
0.807266
2.08189
0.97134
1.10075
6.59891
3.47535
3.78046
2.36324
4.8289
2.86371
3.52223
3.20254
3.24222
-0.323775
-0.473665
0.0675453
-0.428788
-0.272882
0.134913
-0.152223
-0.696404
-2.55647
-1.0607
-0.819335
-0.828553
-2.21855
-0.568505
-0.888464
-1.10171
-0.800783
-0.943748
-0.719699
-1.29259
-1.18778
-0.775361
-1.01158
-6.39619
-5.85416
-2.28999
-4.04746
-6.90661
-7.91697
-5.1042
-6.05747
3.87825
1.75791
2.08978
2.9408
2.37005
2.57322
1.93988
2.21575
0.293363
-0.020612
-0.148471
0.216165
0.208264
-0.0325973
0.141257
-0.0787334
-0.153093
-0.920899
0.373596
0.172404
-0.758618
-0.436013
0.0614108
0.0398168
0.051125
0.0705369
-0.473509
-0.311936
-0.0691362
0.0597718
-0.346107
-0.123667
-0.807535
2.93602
-2.19975
1.76233
-0.234231
-0.294252
1.80691
0.402981
-0.740871
-1.47175
-1.41808
-0.299288
-1.06671
-0.96958
-0.110024
-0.669331
0.64777
4.69636
3.50263
1.32689
1.52681
2.03369
1.06733
1.67376
-0.0728747
0.403651
0.143888
-0.625942
-0.378477
0.756977
-0.686
0.164475
1.48754
-0.11345
0.357985
1.03516
1.81211
1.9188
2.04155
1.30469
0.069657
-0.0378059
1.04606
0.104196
-0.196691
0.3889
0.00446175
0.171648
-0.84688
-0.337545
-1.33944
-0.15282
0.115614
-0.0628605
0.393043
1.14348
0.598297
1.09612
1.37057
1.02415
0.427191
0.75477
0.576312
0.751347
2.12319
-0.0465624
1.40586
-0.792612
0.769779
0.282
-0.0689312
0.306752
0.0995486
0.144233
0.0868785
0.233529
0.121183
0.0449444
0.0321089
0.039685
0.360399
5.15161
1.92291
2.26849
3.37666
2.7542
1.59305
2.83856
0.496492
-3.17514
0.276864
0.708367
0.0850425
-2.43298
0.759061
-1.03453
-2.13079
0.01876
-1.34196
0.282275
-0.601208
-1.14806
-0.213884
-2.05608
-0.75169
-1.96861
-2.5082
-1.3796
-0.880735
1.02297
-1.97207
-2.30379
-0.921527
0.625644
1.19826
-1.10794
-0.561801
-0.540261
-0.731986
-0.203325
1.35667
-0.14257
0.0240346
0.492425
0.738034
-0.00266382
0.940061
0.64599
0.146974
0.276554
0.270005
0.17688
0.17784
0.25676
0.116577
0.215525
0.31772
1.69246
0.168075
0.681229
1.31932
0.558132
0.635247
0.515732
0.321916
0.0394345
2.43434
1.10947
1.44485
1.62424
1.89476
3.12572
-0.320366
-0.207357
-0.0306893
-0.196291
0.325889
-0.388696
0.290469
-0.177559
-0.294051
-0.862028
-0.248488
-0.0617517
-0.99671
-0.847607
-0.246567
-0.324292
0.555943
0.746973
0.22276
0.530421
0.309658
0.161105
0.628494
-0.209165
10.5017
7.01577
5.47282
1.51474
5.14474
5.68168
4.1541
5.92909
-0.168076
0.803964
1.72757
0.128544
0.564643
0.222131
-0.11718
-0.01418
-1.15321
-0.606939
-0.347359
-0.854729
-1.00859
0.405311
-1.35572
-0.654716
0.330534
-0.576644
-0.0182612
-0.131866
0.0186723
-0.263262
0.0197694
-0.12757
0.0766416
0.039999
0.116474
0.795091
0.310769
0.221146
0.441347
0.054457
-1.41027
-1.42075
-3.03031
-0.815925
-1.78814
-1.82878
-1.80034
-1.94109
0.48063
-0.227025
-0.207131
-0.475801
0.031458
0.160567
-0.115675
-0.0817829
1.89994
0.97521
0.10237
0.608868
1.08902
0.867139
0.564541
0.73981
0.00983502
-0.0837553
1.40562
-0.0744012
-0.0275385
0.131239
0.0182615
0.311503
-2.49945
-1.43198
-0.686425
-2.71729
-2.53818
-1.42078
-2.6394
-1.82706
-1.66444
-1.61112
0.4762
-1.17031
-1.99286
-1.71585
-0.451643
-0.601833
0.422464
0.473198
1.32648
0.65766
0.702957
0.622135
0.25592
0.785691
-0.187358
-0.0517641
-0.896097
-0.20745
0.0682612
-1.05025
-0.15983
-0.950678
0.263783
2.25519
2.48239
-0.0594726
1.43986
2.14029
0.641156
1.92641
1.24128
0.828251
0.734664
1.18883
1.17799
1.00407
1.29074
1.01306
-0.0879234
1.39022
-0.310632
-0.021763
-0.290115
0.171425
-0.246674
-0.0347738
-0.025587
0.427656
-0.260213
0.394057
0.187208
0.251849
0.274543
0.439969
1.06802
1.29116
-0.0189502
0.904782
1.04548
0.320794
0.96729
0.601683
-6.36024
-1.04835
-4.71003
-2.93368
-4.82865
-3.38391
-5.3134
-5.2687
-0.112941
-0.897557
-0.801684
-0.724549
-0.115607
-0.235251
-0.895844
-0.938512
-2.84287
-4.37356
-3.06975
-2.8566
-2.95193
0.108861
-3.58102
-3.73421
-0.695803
-0.864814
-0.474773
-0.719179
-0.67539
-0.563088
-0.0381267
-0.372678
-1.3889
-0.0704091
0.342367
-0.66167
-0.431645
-0.399892
-0.141997
-0.112887
2.38058
0.486482
0.839514
1.10939
1.58325
0.801334
1.16619
0.392626
-2.95841
-0.343499
-0.840959
-0.887841
-0.750226
-0.146237
-0.730692
-1.2009
0.0003319
0.17515
-0.0920851
-0.308062
-0.843446
0.400621
-0.776533
-0.140676
2.57908
1.9385
0.0225724
1.80154
0.614315
1.37293
1.50517
1.44179
0.685169
-0.621162
-0.600706
0.681884
0.806902
-0.361608
0.0731215
-0.322487
-0.806249
1.90747
-0.690402
-0.835101
-0.799243
-0.19849
-0.992492
-1.15188
0.126479
-0.794802
-0.869911
-0.134315
0.174709
-0.220515
-0.219429
-0.657686
-0.976189
-0.15771
-0.764194
-0.56456
-0.267042
-0.645442
-0.0899014
-0.444472
0.421512
0.601511
0.320106
-0.162886
0.218759
0.45175
-0.00405216
0.114256
2.88937
3.83141
4.41462
-0.0597874
-0.43084
1.94468
0.489795
1.42942
0.157776
0.446544
0.612971
0.436665
0.346057
0.567194
0.527117
0.630073
-0.665395
-0.26137
-0.684338
-0.319672
0.147129
-1.23154
-1.47683
-1.13912
-3.47494
-4.66495
-2.89232
-2.35162
-3.83524
-4.72661
-2.61584
-4.22557
0.295716
-0.0117282
0.0714139
0.444635
0.341127
-0.00905785
0.397699
0.0657634
-1.45018
6.36971
2.4846
3.72029
2.30375
2.01717
3.90864
4.37844
-1.34751
-3.19433
-3.78286
-2.24757
-4.47473
-3.87903
-5.55672
-5.52038
-5.17861
-1.87063
-3.25276
-3.25585
-4.12517
-3.22624
-4.32109
-3.19841
-19.0437
-20.9015
-11.1415
-2.39103
-14.6837
-16.8449
-8.48078
-13.0343
0.211254
0.544488
-0.00588326
-0.181703
0.219922
0.36143
-0.0140348
0.019042
0.250926
-0.0434503
-0.118868
0.131034
0.0261076
-0.11708
-0.0826966
-0.00575166
0.916848
-0.0568655
0.8776
0.425079
0.117514
-0.556016
0.324863
0.321071
-0.0851525
-0.11007
0.514669
0.366825
0.247256
0.224692
0.449209
0.497434
-0.456857
0.685499
0.889194
0.75281
0.711294
1.05239
1.1514
1.1325
-0.43146
-1.23892
-2.40734
-0.903086
-0.50656
-1.62595
-0.760718
-1.01103
-5.39143
-1.96966
-3.49313
-2.07331
-3.28821
-4.43843
-2.85686
-2.74409
11.3506
10.3442
7.52185
2.84521
9.47417
11.9655
8.2641
6.19377
-0.235189
0.443897
-0.321598
0.511793
0.705556
1.29232
0.136459
1.37276
0.104326
0.67426
1.73899
-0.967487
-0.833466
0.69361
-1.47838
1.00724
-0.901001
-0.246143
-0.851347
-0.848899
-0.568526
-1.34726
-0.640936
-0.85287
0.452706
0.596902
-0.746581
0.564539
0.309966
0.726505
0.242547
0.793201
-2.72025
-0.234456
-1.12009
-1.80491
-2.72777
-1.33828
-2.3355
-1.4471
2.58272
10.9645
17.4064
2.16679
6.51914
11.3104
7.23019
15.171
-0.684273
-1.32377
-0.562402
-1.05406
-1.08564
-0.902353
-1.08284
-1.302
-0.234067
7.07724
5.956
4.61772
0.25287
2.8505
-0.29888
4.43324
1.17661
0.231873
5.13445
0.607493
1.12646
0.289279
1.68026
1.03964
-6.66233
-1.57676
-5.57909
-1.44721
-2.6926
-1.21122
-2.73513
-1.93114
1.12124
0.614834
0.693104
1.16909
0.877886
0.806807
1.56915
1.2524
-1.22511
-0.276088
-3.16349
1.28698
-2.2038
-2.9199
0.172142
-1.56258
-0.726924
-0.0608508
0.810608
0.557436
-0.170658
-0.304654
0.0311082
-0.290092
7.96101
-5.68238
-4.7311
-0.414998
5.69797
-1.44141
3.4486
-2.7075
0.607141
-2.50266
-1.45279
-0.728201
-0.339314
-2.00472
-0.63854
-2.49411
2.13365
0.578171
0.700744
1.35828
1.84414
1.13474
1.54638
0.865754
-1.19802
0.763519
-1.03679
-1.13231
-0.91346
-0.64734
-1.17204
-0.371174
-0.713101
0.170364
0.0343971
-0.291379
-0.708959
-0.0527837
-0.320111
-0.0421857
0.448478
0.820075
1.10344
0.146493
0.159162
0.495729
0.100805
0.444025
0.923959
1.35391
1.86011
1.22389
0.808608
1.3396
1.31716
1.50339
-3.08426
-0.641756
-2.33232
-1.47985
-2.75865
-2.21489
-1.26649
-1.06045
5.60622
5.17571
1.67256
3.19728
3.63429
3.2091
1.82464
1.40514
-3.82776
-1.5911
-2.22851
4.32141
-1.11084
-2.317
0.115804
-1.57922
-3.9004
-2.31228
-0.959991
-1.66141
-3.05847
-2.22108
-0.888155
-1.37499
0.0156481
-0.0488386
-0.492287
-0.0970609
-0.0755021
-0.245287
-0.23922
-0.465174
0.419311
-0.23135
0.562087
-2.11656
0.195757
0.225363
-0.247567
0.0192151
-1.56304
-0.382807
-4.05298
2.37534
0.646491
-1.02766
0.974863
1.09119
-0.802467
-0.679457
0.758557
0.0836004
0.231654
-0.384256
0.112534
0.195077
0.428506
-0.988405
0.222828
0.378025
0.889019
-0.321903
0.501128
0.365163
0.881271
0.931524
0.147243
0.190459
0.929367
-0.0513089
0.410646
0.429913
0.803792
0.285186
1.25289
0.219024
0.324614
0.725022
0.524475
0.532397
1.39194
0.175136
0.0580447
0.710686
0.55357
0.0843826
0.542297
0.186809
-0.822405
-0.596272
-0.619204
-1.02485
-0.819809
-0.415161
-0.947151
-0.600226
-0.395375
2.34778
0.12193
0.989217
1.0405
0.536762
0.753951
0.688121
0.265898
0.369156
1.02009
0.564197
0.501036
1.06514
0.35681
0.893996
2.43523
0.584792
2.0463
0.151923
1.60289
1.50847
1.03263
1.04553
2.04156
1.16112
0.435125
0.934767
1.69974
1.34569
1.23002
0.980648
-0.298093
-0.557303
0.700212
0.196496
-0.0939715
-0.578848
0.216845
-0.297713
0.904024
2.32149
1.0234
1.77204
0.686974
1.69369
1.79681
1.48914
0.407781
-0.287978
0.562828
-0.863476
-1.89331
-0.865431
-1.32425
-0.611761
-1.94323
-1.16937
-1.42275
-1.94631
-2.15911
-1.70968
-2.31457
-1.6078
2.90366
2.22496
1.9656
1.10627
2.32025
2.1817
1.6831
1.73146
4.50642
3.08033
2.10609
3.79088
4.68706
3.05675
2.47624
1.43908
-1.43483
0.189478
-1.03442
-0.668216
-1.14049
-0.148959
-0.741104
-0.633217
1.44016
0.776452
4.30758
1.45943
1.97807
2.07881
2.94109
3.29721
0.210382
-0.396732
-0.949753
-0.238223
0.228101
-0.789759
-0.501201
-0.890902
2.21465
0.809072
0.000509868
-0.627537
0.594506
0.85652
0.15293
-0.248247
0.521719
0.973474
-0.174323
-0.231896
0.699103
1.0188
-0.322682
-0.844996
0.0916618
0.114163
0.0649092
0.354478
0.104517
0.0779044
0.152116
0.0712135
-2.09233
-0.944031
-0.516879
-1.09034
-1.6397
-1.27763
-1.10107
-0.987438
-0.116214
0.51521
-0.220275
0.0834681
0.128336
0.0984118
0.0682984
0.0955239
4.23002
-2.71205
0.112517
-2.73231
-0.284446
0.839263
-1.31515
0.224868
0.64707
-0.959344
-0.26429
0.108802
0.918371
-0.710701
-0.0405213
-0.260621
8.2772
1.61211
3.88496
0.907191
3.81947
6.4046
1.71811
3.51069
0.183532
4.78669
1.95215
0.0718281
-0.0699986
2.18576
1.0344
1.88105
0.659497
0.694059
-0.0489255
0.0238992
0.0740508
-0.379923
0.0749522
-0.229263
0.767286
0.041426
0.259544
0.162066
0.567785
-0.309149
0.205916
0.265854
-0.114935
-1.18816
0.407663
-0.753598
-0.428662
-0.739266
-0.469859
-0.486228
-0.466868
-0.71819
-1.87492
-1.30573
-0.573649
-0.771826
-0.58965
-1.16725
1.18346
2.83114
2.79202
-0.0240856
1.12636
2.64182
0.0275759
0.840424
-0.0369347
0.0843436
-0.0185947
0.105906
-0.0757858
-0.0154027
-0.00881924
0.0164819
-0.0345305
0.0690385
0.536494
0.00691395
-0.17154
-0.25364
-0.269838
0.0154498
1.86471
2.94004
0.502981
0.684459
1.42494
0.97513
0.600293
0.260937
0.405092
-0.0256822
0.100915
0.573777
0.539758
0.625598
0.501632
0.195255
0.758242
2.86544
0.627432
-0.199538
-0.628567
-0.11235
-0.87831
-1.15579
8.27662
1.72825
9.6659
4.51635
6.14087
4.53189
5.95122
6.30554
-0.0801374
0.401026
1.0263
-0.445743
-0.135496
-0.463956
-0.286268
-0.295878
-0.26176
-0.0810978
2.18904
0.299101
0.385993
1.40815
0.240944
0.614887
2.59032
1.06939
2.60436
0.958604
1.13852
2.12861
1.53599
2.92041
0.648708
0.347633
3.56793
0.55447
2.04723
0.9527
2.66433
1.40554
-0.470441
0.013183
1.0402
-0.729982
-0.255738
0.290746
-0.328673
0.716137
-0.185279
-0.0130593
-2.54561
-2.30768
-1.80307
-2.34375
-2.7726
-2.8336
0.0913938
0.1493
1.51857
0.431373
0.909965
0.568614
1.05359
0.824647
0.530922
-0.327528
0.0162407
0.433053
0.341349
1.60213
-0.492945
0.674473
-0.835509
-0.179085
-1.91295
0.583821
-0.534318
-0.377756
0.744058
-0.024491
-1.42829
-0.23416
0.337306
0.499696
-0.740166
1.32796
0.367962
0.470749
-0.0447928
-0.0065507
-0.0381249
0.16845
-0.00939055
-0.0438982
-0.106283
-0.0960558
-0.701603
-1.87897
-0.64372
0.0130586
-0.62762
1.44049
-0.177705
-0.1289
0.83449
1.5765
2.9132
3.86597
4.20159
4.0369
1.59218
3.89335
0.336474
-0.0720437
-0.257153
-0.681441
-0.28445
-0.574556
-0.24909
-0.498072
2.27505
-0.0632097
1.4345
-1.49543
0.133985
0.556741
0.2058
0.837021
-1.16666
-0.360051
-0.0189114
-0.335432
0.467014
0.669063
-0.226162
0.261238
3.67964
3.78786
-0.0449492
1.10222
1.99575
1.71528
0.0422216
0.2651
-1.99673
-0.297596
-1.15733
-0.904366
-1.41014
-1.40257
-1.40452
-1.45668
-2.39259
-0.0762775
-0.769092
-2.01255
-2.15697
-0.707529
-2.26374
-1.05744
0.443864
0.849732
0.741751
0.288221
0.234204
0.437757
0.380547
0.174134
1.84235
1.7426
2.62809
2.96202
1.93116
2.52656
2.21611
2.76501
-3.88199
0.224582
-6.41585
-0.564482
-1.74022
-2.56694
-3.56648
-4.23599
-0.617333
0.597649
-0.922169
-0.831987
-1.20559
-0.210466
-1.07749
-0.931591
-0.202598
-0.152565
0.102012
-0.415221
-0.911431
-0.324091
-0.320191
-0.435288
-1.51043
-2.2402
-1.58496
-1.6439
-2.20407
-2.49387
-2.54907
-3.3023
0.287526
-0.929985
0.618184
-1.97511
0.788736
1.87321
0.781488
2.05737
0.401041
-0.275903
0.143879
0.86307
0.525533
0.0300041
0.29823
0.0760679
-0.205261
-0.120028
-0.755721
-0.352745
-0.485153
-0.686212
-1.51845
-0.785413
1.98733
-0.551719
0.963875
1.02722
2.92954
1.60419
2.05334
2.49303
0.0965624
0.0882514
-0.0442269
-0.030671
0.0914038
0.0327974
0.0506949
-0.039325
2.78935
0.465263
1.39919
0.717806
0.554598
0.0537051
0.635053
0.900068
2.7111
0.446633
-0.955269
0.171709
0.812984
1.56372
-0.356365
-1.00965
0.605077
0.490549
1.00804
0.35518
0.63763
-0.248726
1.50686
0.952999
0.407998
0.275937
-0.0445047
-0.347344
0.210355
-0.345352
-0.100154
-0.00629799
1.91235
5.58994
1.09809
0.388223
2.75009
1.68067
2.11029
0.784755
1.73472
0.308717
-0.336137
1.1581
0.481507
-0.459094
0.706729
1.29505
0.464952
1.53957
1.1923
1.03739
0.742369
1.23058
0.62853
1.11905
-0.0618046
-0.175753
0.0134013
0.249294
-0.220403
-0.0488
-0.010309
-0.415423
1.78582
2.06573
1.30901
1.28229
1.83745
1.65754
1.43685
1.46555
4.25571
2.18961
4.73964
1.95024
3.59213
3.2991
3.5395
3.85556
0.620028
-0.371127
-0.447624
-0.207756
0.289363
0.366005
0.59685
-0.115262
-0.449435
-0.623818
-0.406097
-0.400084
-0.752508
-0.689552
-0.522238
-0.550037
0.812564
0.0857889
0.3444
0.478253
0.576825
0.380902
0.590389
0.0990274
-0.78463
-0.902656
-0.773494
-0.159037
-0.43898
-1.28951
-0.985452
-0.926711
-0.0229774
-0.60929
0.2117
-0.795108
-0.369831
-0.505426
-0.0191527
-0.132329
0.270833
0.215027
-0.0268597
-0.489966
-0.291913
-0.300458
-0.371077
-0.125126
-0.440642
-0.593559
-1.08723
-0.567043
-0.855728
-0.933647
-0.812864
-0.916118
-4.41968
-0.122693
-1.04592
-1.0526
-1.42232
-0.435052
-0.975677
0.0824332
-0.416034
-1.24434
-1.14612
0.13054
-0.951707
-3.56873
0.25871
-2.1181
0.760324
0.99772
1.27673
0.160279
0.885175
1.40486
0.384198
1.06356
-0.359908
0.443726
0.716827
0.594093
0.430569
0.454971
0.263309
0.328162
1.05267
2.35202
0.779989
1.98954
0.709825
2.0527
0.894419
0.901681
1.50391
1.1578
1.14961
0.403757
0.774647
1.03636
0.684951
0.878894
1.00962
1.85515
-0.00935784
0.114659
-0.75756
-1.68366
-0.552942
-1.68558
1.3332
1.2363
1.30921
0.512318
0.931831
1.29216
0.614371
1.23806
-0.30067
0.038528
0.561709
-0.409679
-0.699643
-0.261674
-0.157439
-0.729391
-0.594601
1.07511
-2.6141
0.831697
-0.968015
1.21402
-0.97843
-1.27257
-0.0271189
-0.438009
0.191892
0.205655
-0.0554831
-0.193306
0.121898
0.146668
0.536596
0.0304901
-0.00905117
0.308181
0.243629
0.0541491
0.0789997
0.0179208
1.59326
0.16229
0.802507
1.5087
1.54938
1.03607
1.29811
1.47881
1.92533
0.459802
0.76937
0.97627
0.100589
4.22435
0.652388
2.09349
0.06885
-0.244313
0.664094
0.410168
-0.277786
0.0109834
0.662999
0.432698
1.01851
0.905188
0.389603
1.07362
1.10659
1.05163
1.10909
0.58255
-0.905305
0.14765
0.0682204
0.125713
-0.25215
0.150735
0.0444739
0.0303796
1.39433
0.529765
1.88315
0.548361
1.24761
1.88678
0.877673
0.953752
0.674995
2.04917
1.15047
1.65077
1.55844
1.12998
1.28375
1.07832
0.783767
-0.156988
-0.663491
-0.544147
-0.419421
-0.904297
-0.0240043
-0.481219
1.1658
0.497461
0.0850172
0.277757
0.211908
0.285593
-0.0389022
-0.0016243
0.499595
0.578217
-1.05507
-0.0534912
0.267014
0.0833609
0.35812
0.0294009
-1.80937
-0.411219
-0.578998
-0.449411
-1.27843
-1.6843
-1.37858
-1.78511
0.135005
0.196796
1.22376
-0.0372726
0.0283613
0.383018
-0.286523
0.721148
2.63345
0.270257
-0.16893
0.76013
0.307298
0.424366
0.164606
-0.0179084
0.962668
1.15484
0.542594
0.131896
0.819435
1.21484
0.486387
0.852991
0.309011
0.566157
0.0114152
1.33518
0.706876
0.463621
0.903523
0.546466
0.903236
1.12981
0.758238
-0.41505
0.865532
0.71206
0.593906
0.783275
9.94063
12.6842
10.5802
1.79937
8.51862
9.84305
7.18467
9.2583
-1.02809
-1.08725
0.920194
0.889538
-0.0304893
1.26444
0.90931
1.31302
-0.368586
1.00805
0.144271
0.382048
0.20973
0.798601
0.333652
0.558839
3.34893
0.427066
1.31508
0.845277
2.5443
2.60883
1.07579
1.35042
1.29811
0.506048
-2.00965
-1.00263
-0.946673
-2.11441
-2.21427
-3.05855
1.67891
-2.70718
-1.78273
-0.454044
-1.63694
-2.15702
-1.26238
-2.47694
2.55715
1.45988
0.719126
0.870128
1.48909
0.886142
1.02103
0.791466
0.854395
-0.498753
2.391
0.632989
0.781985
1.51239
0.36094
0.562338
-4.81604
-6.49523
-3.06561
-3.94211
-4.4964
-5.55377
-5.75482
-5.32032
1.41615
-0.080333
-0.0745365
0.934216
1.50403
0.250951
0.62923
-0.109606
2.52276