/*--------------------------------*- C++ -*----------------------------------*\
  =========                 |
  \\      /  F ield         | OpenFOAM: The Open Source CFD Toolbox
   \\    /   O peration     | Website:  https://openfoam.org
    \\  /    A nd           | Version:  12
     \\/     M anipulation  |
\*---------------------------------------------------------------------------*/
FoamFile
{
    format      ascii;
    class       surfaceScalarField;
    location    "102";
    object      phi;
}
// * * * * * * * * * * * * * * * * * * * * * * * * * * * * * * * * * * * * * //

dimensions      [0 3 -1 0 0 0 0];

internalField   nonuniform List<scalar> 
83056
(
18.9185
-24.2431
15.7857
-10.4613
-23.8321
15.6076
18.8221
-10.5976
17.1616
-25.91
20.8799
-12.1314
-12.5821
-26.5277
17.6913
21.4185
7.60042
-4.50055
15.8185
-4.63056
-11.6011
8.30693
-25.3896
20.838
0.407116
-0.197915
19.5272
-19.7364
-0.0765547
20.3625
0.34562
-20.6314
-20.751
-0.08951
20.4853
0.355208
20.4854
-0.0943864
0.352024
-20.743
20.2191
0.267761
-20.0798
0.262441
19.8802
20.8733
-0.120007
0.384768
-2.19969
-7.05774
9.25739
9.96349
-2.17209
-7.79148
-7.42447
-2.40284
9.82729
0.0271563
-3.21226
-7.89198
11.077
-2.50512
7.90295
-7.59758
7.45835
-2.64374
10.5738
-2.60987
-13.9415
-17.4489
7.14715
-18.9493
-15.354
7.77552
7.6426
-18.5657
-14.9869
25.1056
-17.93
-14.4395
7.26374
10.9089
-32.0369
7.18635
-33.4301
11.0762
-18.0074
-14.7113
-5.20084
12.2109
8.77559
-16.7029
-5.74755
13.4525
8.99804
8.61032
-5.25824
12.2555
13.7435
-5.66299
9.61077
7.76168
-21.8077
8.84511
-21.918
12.9768
7.7543
-5.55334
-16.834
22.8843
8.3392
-14.3895
8.54726
-17.4471
23.8411
-14.9413
-14.3439
-17.1191
23.0613
8.40167
22.4108
-16.6339
8.18936
-13.9663
5.96559
-8.42758
-14.3721
-8.63593
23.1487
5.81473
8.16842
-17.1651
-21.217
2.7177
12.7518
5.69076
2.68244
12.5069
2.38146
11.1824
12.9857
2.76983
-8.27392
-15.695
2.75193
-14.9568
12.3737
-8.26261
-7.51562
0.07918
16.2527
-8.81664
0.19232
-7.80476
16.3867
-8.77455
-8.81315
0.0983943
-7.86039
16.5749
15.9953
0.171259
-7.6663
-8.50039
8.37805
-7.37605
-8.5179
-7.44965
16.0197
8.49101
0.128066
-7.77183
9.44515
-24.1499
5.23763
9.46725
5.51445
-25.2066
9.9564
9.73587
-24.3419
9.50866
5.32763
9.50559
9.69752
-24.8953
9.76264
5.43508
18.8466
14.7398
-24.1411
14.8775
9.48354
19.1305
5.30685
9.66617
0.380442
9.53928
10.5272
-20.4467
-20.0784
10.0191
-0.16917
10.2286
9.99571
-0.0807727
10.3072
-20.2219
10.0867
10.03
-0.0908763
-20.0257
10.2345
-20.008
10.1543
-20.1691
10.3253
10.1449
-20.0661
-0.0283874
9.5981
9.0685
-9.12723
-9.86385
9.27077
10.1613
-9.56803
-10.2549
10.3704
9.90369
10.3251
9.99196
-10.287
20.0248
-0.146561
-10.28
-0.0389999
10.2
20.3329
10.039
5.91996
-2.40247
-17.5853
14.0679
12.8056
-1.77868
5.60753
-16.6345
-1.81013
5.58913
-16.3608
12.5818
-16.8089
-2.16117
5.80325
13.1669
-11.2663
19.2921
-2.10595
18.5994
-17.06
-11.1062
13.5895
5.68297
-22.6621
23.5039
-1.92802
1.08625
23.2702
-1.89532
-22.5648
1.18997
-1.39932
21.9911
-21.6106
1.01892
0.829383
20.6837
-1.25942
-20.2536
-21.2694
0.598916
-1.99154
0.585727
1.41507
-20.4857
21.9141
-21.2993
-2.00081
-15.7393
3.73094
14.009
15.3026
-16.7566
3.61008
-2.15612
-16.7836
3.66092
-2.16298
15.2857
3.45579
-15.9519
-2.03661
14.5327
1.44844
12.7376
-16.187
13.1456
3.60552
1.54697
14.6464
-2.09106
0.073069
11.2073
-0.198584
-11.0818
-11.5124
11.5719
-0.139049
0.0795881
11.4729
-0.00212451
-11.5554
0.0847392
0.0366534
11.6349
-11.7733
0.101756
-0.0692247
-11.3669
11.5093
-11.4323
-0.149349
0.0745255
-11.4047
0.115098
1.89037
8.12903
13.6862
-23.7055
7.44565
12.9489
-22.1734
1.77892
13.4939
7.36952
-22.7041
1.84069
-23.0606
7.62084
13.6106
1.82924
-21.5271
9.58749
13.8302
9.47795
-23.5594
-21.1277
7.65473
1.84413
-11.3212
-11.8189
7.40076
15.7437
-12.2409
-10.9543
7.45148
8.69804
-13.5597
-11.8949
-13.1366
-11.1888
8.37351
-24.543
4.73896
8.4828
4.65389
-13.4532
-24.5847
-11.2328
-20.2939
19.7003
1.70735
-1.11369
1.74373
18.7023
-0.977314
-19.4687
20.0303
1.77999
-1.18694
-20.6234
-1.22828
20.12
1.83303
-20.7248
-21.4455
-18.6228
19.7743
-18.534
-1.16777
-21.6277
1.77661
-20.1314
-0.258075
2.19408
-20.3793
18.4433
2.06827
-18.8119
-0.297511
17.0412
18.8002
2.15814
-20.773
-0.185415
-20.7238
2.16171
-0.213341
18.7754
-20.4539
1.95942
18.2364
1.89962
-20.2852
-20.9456
2.18134
-0.245766
0.826463
-9.48674
12.391
-10.3598
0.723323
13.2975
13.2337
-10.2999
0.676321
-3.678
-10.0707
0.746876
13.0015
-2.91401
-9.21718
12.9574
-9.66825
-2.88343
-10.0119
0.682045
11.1951
19.6093
-19.5972
-11.5618
20.7033
-20.6101
11.4686
-20.4595
20.5527
11.4788
20.743
-20.7221
11.614
31.704
-0.169005
-20.34
-0.146386
20.2887
32.0833
11.4775
4.74649
1.6447
17.1127
1.92163
4.35546
15.714
-21.4786
1.80766
4.28605
15.3849
14.7758
1.88291
4.02504
20.335
6.32569
6.41402
15.8426
19.3005
1.80106
4.2359
27.1512
-11.0364
-14.563
-1.55181
-1.57237
25.9769
-10.3924
-14.0121
-11.2358
27.832
-14.9789
-1.61728
-14.4651
27.0434
-11.0364
-1.54189
12.5918
25.5139
-10.9544
25.9831
-14.9636
12.5842
-1.53541
27.3315
12.7113
-12.5957
0.184477
-0.299921
-12.6116
0.216569
-0.237627
12.6329
-0.0391805
-12.1864
0.0995462
12.126
-0.0710156
-12.3339
0.0624555
12.3426
12.5236
0.0259059
0.161938
0.00264885
-0.0906685
12.3786
-12.4236
12.3421
-26.9559
11.1044
14.3075
1.54405
14.1843
-26.707
10.9695
1.55317
1.59027
-27.9992
11.1361
15.2729
10.8561
-26.1281
13.7417
1.53033
-15.9298
-12.6291
1.60302
-12.8603
11.1147
-16.0738
14.3008
-27.3438
0.117741
9.2409
8.83054
-18.1892
9.62348
9.96102
-19.6652
-19.4176
9.75328
9.49518
9.85145
9.65585
-19.5981
9.68121
9.27268
-18.8361
9.62407
9.68066
9.82189
9.30233
0.161765
-12.1955
11.8359
12.5427
0.193522
-12.8305
-12.8081
0.172015
12.5466
0.137845
0.15729
-12.9231
12.6281
0.276854
12.645
-12.7598
12.6996
0.28412
12.4989
0.175696
4.14732
21.0146
-17.0328
-16.8303
3.87207
20.5792
20.3542
3.8454
-16.83
-7.65869
3.94432
20.9918
-17.2773
-3.72985
-12.8723
20.7496
-12.9054
-3.61022
-16.9207
3.83864
2.42627
3.43044
9.05565
-14.9122
10.338
3.50406
-15.6207
2.87187
9.20225
-14.4766
-15.8744
3.27117
10.4421
-13.5383
12.6511
3.31338
12.5202
-15.7205
-13.2861
10.0627
0.655315
-9.02456
-7.51977
15.889
15.7742
-8.82221
-7.57687
0.624922
-8.62563
-7.60721
0.599375
15.6335
-7.76085
-8.9154
0.611773
16.0645
-7.06004
16.6847
-8.9692
16.3043
-7.59009
-7.07631
16.0002
0.602419
23.3096
-8.32902
-9.15788
-5.82268
-8.38918
24.3664
-9.46516
-6.51217
-7.62705
-8.83479
25.4109
-8.94907
-7.78117
-8.50143
22.174
-5.89138
14.7378
14.2251
-5.65331
15.454
-9.10537
15.2433
-8.79931
23.0702
3.58104
-2.09679
-11.1824
9.69814
-10.7832
4.26763
-3.01241
9.52803
-2.39337
3.33875
-10.241
9.29567
9.6788
4.68546
-3.32128
-11.0429
13.484
-7.17143
-2.73147
-7.05022
9.75115
13.4591
-10.9517
4.01558
-27.4268
10.979
1.40329
15.0445
11.1215
1.42011
15.2904
1.32629
10.5568
14.0939
14.8149
10.7942
1.43439
-12.5523
-16.2839
1.40943
-16.369
14.9383
-12.2887
10.8197
-4.84058
7.52839
-10.5123
7.82447
-11.6313
8.37588
-5.30247
8.55778
8.36809
-5.28296
-11.4482
8.363
8.12301
8.10823
-5.14386
-11.0875
3.06044
-16.0434
8.14231
-16.8143
8.24332
3.13853
-11.0589
-5.30765
17.0209
-9.20826
-2.84244
-4.97018
-5.01208
-9.24984
-2.85719
-2.98449
-9.34378
-5.11886
-8.99081
-2.76761
-4.87553
7.89695
11.9342
-2.81039
12.2018
-9.31699
7.94772
-5.00431
-23.6086
-0.155906
0.0503996
23.7142
0.032241
-0.0127745
22.8649
23.7882
0.0489932
0.00395563
-0.00149247
-0.00253146
23.0653
-23.5019
-23.4125
23.3057
-23.4121
-0.0575658
-23.5248
0.110777
3.02835
10.0573
-9.19608
-3.88971
11.0847
2.19168
-9.78582
-3.49066
-4.81262
2.35084
10.8216
-8.35981
-9.14523
1.8273
10.4676
-3.14981
-6.91709
13.6662
-3.72084
13.6397
-9.47215
-6.05003
10.5709
2.77703
21.2083
-21.655
-1.44863
-21.4208
21.1627
-1.66987
1.41017
19.5391
-19.6749
-1.27432
-1.06845
18.9893
-19.1802
19.575
-0.358212
-0.327077
-1.51866
19.0386
-20.4652
20.1216
4.83556
-14.0009
-3.46047
4.49655
-13.2224
12.3448
4.47839
-13.3191
-13.7273
4.66453
-9.07524
1.48716
1.10202
-13.6377
-8.92678
4.52009
-9.37964
19.1279
6.66495
-16.4132
6.08925
18.8528
-14.6384
-10.3037
18.9034
6.20478
-15.8867
-9.22167
-16.1626
20.0424
6.63666
-10.5165
-24.5162
-3.38246
18.519
-3.43935
-14.9876
-25.8466
6.30143
-10.3826
-22.7625
21.4561
-14.375
15.6815
21.8618
-22.8233
-14.8282
15.7898
15.9222
20.6231
-21.7162
-14.829
-15.3236
21.294
-22.271
16.3008
-38.662
-0.841145
16.7407
-0.851487
-15.9487
-37.444
21.2795
-22.3732
1.37219
-2.65101
-19.7838
21.0626
21.216
-2.76004
-19.7943
1.33833
-2.71445
-18.4535
1.10942
20.0585
-19.8115
-2.74176
1.31892
21.2343
-18.4233
22.5538
-2.75834
22.5852
-19.7925
-18.3859
21.1282
1.48489
0.158405
0.142051
21.1558
20.407
0.00277867
0.213382
-20.7307
0.0345702
20.5162
0.179982
-0.000275862
21.1231
0.171264
0.211328
21.2266
20.6454
-0.0270227
0.258963
20.9675
0.173726
11.7121
-2.43192
-5.43473
-2.45002
11.8907
-5.49634
-5.426
-2.48348
11.7815
-3.75207
-2.34072
11.282
-5.18925
7.85709
9.16365
-5.30863
9.2457
7.82748
-2.41592
11.6472
3.67111
-2.01507
18.5396
-20.1956
-1.944
3.67053
20.0188
-21.7453
-19.1316
3.15325
-1.39026
17.3687
17.4861
2.99711
-1.19105
-19.2921
22.635
1.61572
-20.5796
1.69777
18.9933
20.612
-1.51017
3.17821
1.27906
9.53874
-5.22865
-5.36477
1.24884
9.91921
9.3559
1.29072
-5.0391
-5.26259
1.22624
8.8885
-4.85223
-4.30114
-3.85848
9.43866
-3.98294
-4.15227
-4.96882
1.22066
25.1416
-6.69451
-13.4933
-4.95357
-2.8541
-8.18399
23.6152
-12.577
-13.5302
-7.23525
24.9296
-4.1641
-8.92618
25.8265
-14.2628
-2.63739
16.8178
21.9266
-13.6027
21.6368
-7.67317
16.955
-3.95462
25.0617
-8.37211
-9.91623
9.2638
9.1416
-9.92787
-8.27866
9.065
9.81083
-10.339
-8.29395
-10.3681
-8.39286
9.84565
-18.6703
0.524096
9.77415
0.530271
-10.059
-18.8132
-8.47206
3.11127
-11.1378
-8.08259
16.1091
-12.2778
-8.24548
17.2856
3.23772
17.6352
-12.4354
-8.48652
3.28662
-8.21534
-11.7195
16.7452
3.18957
-5.29335
-8.68052
17.085
-9.11493
-8.45635
-5.24302
-11.653
3.27721
19.7069
0.077521
-0.175057
0.0605705
20.6542
-0.0113011
-19.8926
19.7536
0.10591
0.0332945
-0.0196986
20.5785
-0.00595232
19.9947
20.0011
20.0278
0.0274616
19.9675
0.0139883
20.1028
4.55069
-20.1083
4.41965
5.01021
-22.4538
5.00824
11.9166
-21.7632
4.9494
4.8972
-21.3651
4.84499
4.80052
-16.5631
9.46083
9.78134
-21.3342
-16.8129
4.90858
4.88509
-0.0358541
15.4854
-7.92114
-8.14925
16.7212
-8.49291
-9.31235
17.7866
17.1409
-8.86146
17.0286
-7.98892
-9.07557
-8.10996
16.9892
17.2942
2.69134
-16.936
6.72488
-16.9255
2.58811
6.73023
6.75213
-16.9026
2.57359
7.21695
-15.9934
2.42293
6.35353
10.2341
-14.3165
6.77375
-14.2815
10.037
-17.1365
2.50774
-0.212645
-12.9999
19.5775
-6.36499
20.7228
-13.4685
-6.96781
-0.286448
-13.802
20.8684
-6.8178
-0.248596
-6.89059
-13.8668
21.0641
-0.306578
-6.96413
20.1421
-13.3905
20.3384
-6.5797
-6.85212
20.1036
-0.315637
-6.89864
-6.81806
-9.10652
-8.81066
-6.50279
-6.40272
-6.78818
-8.83986
-6.64283
22.3506
-6.80489
-8.86481
-6.68088
15.7107
-15.8066
-6.80262
-15.473
15.6505
-9.10636
-6.61071
14.7246
-14.9191
0.19444
-14.5899
0.214968
0.121834
-14.95
-0.00167867
-14.8085
-0.0187621
14.7786
-0.168125
0.114192
0.188737
15.6381
-15.8079
-19.4446
4.89144
-1.89096
4.79551
5.22202
16.0877
4.78444
-3.22717
-21.0543
4.83683
-22.1782
-3.16547
11.45
-9.47682
-10.3022
-10.283
11.6678
-9.88632
-9.70215
12.0249
-11.1576
8.78452
12.9077
-10.4344
-11.2579
20.5743
1.46918
-10.5934
1.49198
19.679
-9.42526
11.4688
-19.6162
19.6928
0.0361995
-0.112764
19.8967
-19.6511
-0.177397
-0.0680327
0.0167344
-20.7568
20.8084
-0.0682712
-0.0436131
-20.5882
20.5951
0.0367774
-19.6682
0.0596177
-0.00760748
0.0437449
0.184773
-20.1745
20.1906
-20.114
23.8498
-1.65543
-23.8077
23.1762
-1.77131
-2.62019
24.8188
2.9054
21.2543
-1.98568
25.9755
-0.461096
-1.66467
-0.442112
25.5145
22.4522
-9.42289
-0.282456
9.70534
9.27455
-0.206001
-0.0317885
9.30262
0.00626573
-0.0297008
10.3939
-9.17
0.0170426
-0.269882
0.10457
-10.2727
10.2961
-20.5538
19.8566
1.79556
-1.09834
1.88205
19.0457
-19.9714
-0.956366
19.8779
1.73804
-20.4445
-1.17135
-1.14128
19.987
1.88542
-20.7311
-21.686
-18.7755
19.9077
-18.6806
-1.12336
-21.7533
1.83651
-20.556
-10.5573
10.4534
-0.178561
10.7407
-0.419454
-0.0128765
10.2119
0.0323124
10.3558
-0.0808262
-10.4912
0.0128407
-0.0787926
-0.020341
-10.2921
10.3374
2.23855
-10.8324
10.788
11.5622
-11.7726
2.3685
-2.27304
-11.2807
2.34184
11.2119
-11.6892
2.41731
11.4336
-9.48161
13.9015
14.2456
-12.165
-9.49194
11.7043
2.48057
-2.16353
-6.15736
10.6717
-6.5429
9.81592
-1.44578
10.8343
-6.92932
-1.71335
-2.02415
-6.39545
10.7061
-2.28663
-4.43519
-8.3533
10.6249
-8.20116
-4.37689
-6.00059
-1.74378
-1.40656
0.727569
-18.6002
-1.29185
1.08
19.3339
-1.55053
0.918859
0.742014
-1.39498
-0.583097
-21.1087
-20.1698
0.98654
-0.592375
-1.42828
-2.74501
-11.2731
11.3671
2.75448
-11.6077
-2.66339
11.5166
11.9838
-12.0231
-2.72074
-12.0698
-2.68983
12.0179
-15.1197
0.081288
12.2934
0.0740505
-12.4392
-14.7468
-2.68898
-18.9702
-0.283768
19.4951
-0.241212
19.5268
-0.150759
-19.125
-0.251069
-0.0647674
-0.452169
19.1957
-18.679
-0.388381
19.5668
-18.953
-0.225455
-19.1679
0.478878
-0.281306
0.525797
-0.167005
-19.0409
19.1312
-18.5799
-7.06092
-13.5189
12.4973
-14.8853
-7.10008
13.7399
7.82305
-6.7179
-13.9227
12.8172
13.9729
-7.32669
-15.1328
6.7646
-22.2819
-21.6021
13.4813
6.64862
-14.9576
-7.13045
26.6795
-21.6235
0.878232
-5.93419
-6.45374
-22.6459
1.10047
1.01895
-21.684
-6.04188
-21.2288
0.930232
-5.82949
5.22952
20.4879
0.96212
21.1697
-22.3939
5.15509
-5.89602
17.2059
12.7656
-8.95678
-20.8045
12.1462
17.4809
-8.82261
-9.67256
13.4278
16.824
13.4234
17.3633
-9.79484
30.6664
-3.62972
-9.83077
-3.67556
13.5375
30.5433
17.1953
7.87684
-4.75818
-8.36819
-4.79469
5.27078
-4.73639
-4.62086
3.08371
-0.514529
-0.531959
-4.75254
3.03301
-11.3191
-10.449
6.70486
-10.7211
-10.9027
-10.8204
-10.4909
15.5161
-11.229
-11.092
4.6463
-4.45317
-11.5122
-4.45675
4.26032
-11.0168
-1.21992
-16.6403
11.1422
12.244
-18.1655
-1.4053
-17.8338
-1.34595
12.0797
6.68452
-16.5366
-1.28802
11.14
5.71427
10.1369
-17.0712
10.8278
5.64123
11.1802
-1.36474
-0.0200191
0.122541
20.7501
0.0332183
-0.129074
-20.6446
0.020274
-0.132333
-0.0461419
0.03647
-0.0376648
20.1206
20.7312
-0.0186648
-0.0394951
0.0471735
9.24015
-0.147144
9.34944
-9.33729
9.55395
0.0335246
10.4711
9.23482
10.0681
9.08769
10.2636
10.014
-2.29086
-9.34014
-10.9337
21.0945
-7.93293
-2.11385
-11.0476
-8.29293
-2.15234
-11.1652
-10.4494
-7.73819
-2.06595
-13.1629
19.0021
-8.12995
19.038
-11.1063
-12.7465
-2.00141
-10.0756
-19.9323
19.6155
20.4398
-21.0753
-10.4008
10.9685
-21.1441
-10.3495
20.5251
-21.1953
-10.4908
20.6498
-31.1318
10.1018
10.0978
-20.7898
-31.4655
20.372
-10.3992
-21.8852
21.5158
0.425348
-0.0557152
22.0938
-0.150983
-21.8659
-0.0768594
-0.0520718
21.1682
0.0296329
-21.1456
0.0773421
21.4513
-21.4499
-0.0787208
-21.9274
0.0325541
0.00975309
-0.014113
0.180615
-21.182
21.292
-21.2481
-13.3666
12.4336
-12.067
12.4654
12.613
-13.5361
-11.5423
14.7846
-14.6231
-13.63
-13.9259
15.0254
-14.9663
-26.1539
-0.968936
13.7562
-0.993363
-12.6952
-28.2854
-14.4941
-0.656233
8.04382
-7.83987
-8.00721
-0.466512
8.18993
0.195322
-0.373338
8.17805
-7.99999
8.29316
-0.309541
-8.13438
7.67201
-8.49539
-8.61163
8.27643
7.98171
-8.18393
-0.434575
-19.2701
19.305
-0.0716135
0.0368184
19.4912
-0.00356193
0.0396118
-0.0598079
20.3882
0.0341563
0.0329123
20.5309
-0.0784548
-19.3221
0.0715088
-0.0194712
0.00667576
0.162457
-19.827
19.9315
21.2616
-12.2428
8.31566
-17.3346
-12.6909
21.1148
8.72304
-17.147
-17.0982
-11.8603
20.8942
8.0643
8.62622
-12.3909
20.7528
-16.9881
30.0557
8.50634
-17.3004
8.54509
8.81973
29.6737
-12.5411
21.1205
6.04387
19.6991
-22.5759
-3.16712
20.2137
-23.2635
6.11113
-3.06138
-2.99455
19.1881
-22.0331
5.83947
-23.3371
20.4612
6.0922
-3.21659
-17.0967
26.3405
-3.20008
25.9069
-22.79
-16.9417
19.945
5.97057
21.9844
-20.9945
-2.0099
1.02003
-1.98855
-20.2369
21.2599
0.965629
-20.9585
-2.08116
21.9582
1.08147
1.09793
-21.0365
-1.93496
21.8736
23.0748
19.9642
-21.0546
19.8575
1.22881
23.0389
-1.97672
21.9379
-20.2705
-2.12048
21.3729
1.01803
21.4635
-20.394
-2.02708
0.957493
-2.05561
-21.2739
22.1885
1.1409
0.980502
-20.071
-2.03864
21.129
-19.3202
1.00785
-1.95812
1.02686
1.11641
-19.6925
21.6808
-20.7213
-16.6631
0.0466418
-0.0240789
16.555
0.193133
-16.5485
-0.199537
-0.0807604
0.202087
-18.2868
0.119379
-16.5682
-0.0878063
-16.4784
-0.0847907
-0.0999601
-0.0861447
0.162752
-17.0366
-17.2035
16.9808
10.583
-20.4844
-7.07977
-20.2654
10.1554
-7.33905
-8.43219
11.8489
-21.9824
11.7912
-21.296
-8.42529
28.2164
-3.38223
-7.85356
-3.36842
11.3193
29.808
-21.3991
0.104286
13.3255
-13.6283
-14.6677
14.5633
0.276969
14.2969
-14.4317
14.3437
-14.343
14.4595
-14.5045
-14.7585
14.5503
14.5086
-14.6693
-2.29495
18.3889
7.08222
-22.7775
-2.36834
18.7714
6.37432
7.15858
-2.55214
20.2123
17.9162
-2.45351
5.79156
15.7845
-24.4655
6.38596
-25.5426
18.5495
15.9029
-2.4811
0.256661
-0.453859
22.803
-22.6057
-0.307027
22.9126
-22.9788
-23.0114
-0.424416
22.9693
23.0407
-0.408137
-22.9421
23.5384
-0.0275197
-23.2542
0.0286776
23.2028
23.4173
-0.404071
-10.9057
-19.7733
20.1271
-20.252
-11.4305
11.7598
-20.853
-11.5169
-20.9139
-11.5815
-31.2986
8.9883
9.03044
-20.202
-32.2656
-11.4753
6.52298
-21.8827
9.01347
6.34643
6.61816
-22.0402
8.85018
6.5718
8.71785
-21.5007
6.42025
6.36252
-22.2506
8.93425
6.60028
6.71605
-15.7781
13.3056
8.99544
13.4283
-22.5882
-15.5661
6.62112
6.57997
23.4853
-13.2662
9.47999
9.41581
23.4227
-13.6506
-18.6132
22.7717
-12.3634
8.20473
-14.2183
24.5277
10.1517
9.74459
33.6856
32.1875
-13.0271
9.73652
9.73068
23.3107
29.1548
-5.5901
-13.5074
-11.9556
28.8202
-6.04305
-11.6211
30.8806
-4.36332
-14.8961
-6.63986
28.0854
-10.9779
22.6078
17.1178
16.8697
-6.21756
24.4957
-14.0178
29.7444
21.7257
15.2176
-15.7874
-15.8375
14.853
-21.4623
15.1121
-15.5325
15.4887
-16.4057
36.7805
5.91283
5.74872
15.1942
38.3018
-16.9002
0.864843
21.1326
-3.07215
-18.9252
-3.23287
0.879071
22.2485
-19.8947
-18.6241
1.02874
20.8391
-3.24385
20.8402
0.899354
-3.13179
-18.6077
22.5289
-2.2257
-19.4383
-2.18066
21.4766
21.9025
-3.28811
1.09776
-0.180654
-6.9122
-2.37235
10.1399
-8.2663
0.445266
-2.31878
-1.83436
-7.17733
-0.146113
-7.25895
0.0186219
-1.7088
-7.60472
8.83738
-1.41335
9.42732
-6.8921
-7.52692
0.0660246
-6.4634
-1.98914
15.0329
-6.58044
-7.52698
-3.29911
18.2024
-7.3763
-3.90159
18.8683
-7.74726
-7.21957
18.2036
-3.62895
-7.60509
-6.96966
10.9002
-13.9836
-3.38005
-15.056
18.4291
11.1268
-6.90684
-7.83077
-8.65168
-1.50661
10.1582
10.2273
-8.90815
-1.31913
-1.41218
-8.5663
9.97848
0.0212956
-8.70355
-1.54817
10.2304
-8.45245
1.55063
-1.7499
1.77481
-9.45502
11.0269
-9.09239
5.35479
-4.69214
21.1993
-21.8618
-21.9967
-5.43981
21.713
5.72364
-5.24781
21.7065
5.54136
-21.9999
21.8113
-5.97141
6.10827
-21.9481
27.3937
-16.4239
-5.61483
-16.3959
21.7929
27.2979
-21.9104
5.65413
0.615146
-11.6726
3.27092
7.78654
-11.6015
0.653945
3.2159
7.73161
7.72455
-11.553
0.610759
3.21783
3.20831
-11.4352
0.621752
7.60506
3.87518
-10.9939
7.73382
-10.9566
3.23031
3.84321
-11.6288
0.611134
9.92127
-8.20617
-1.71505
-1.61759
-8.09752
9.71517
-8.0971
-1.52407
9.6212
0.0198647
-8.96408
-1.45163
10.3959
9.75373
8.65752
-8.48993
8.13615
10.4669
-1.78951
10.506
-9.62844
-17.2057
9.89809
9.73769
-17.697
-8.94322
16.7717
-17.4808
-9.096
9.80515
-16.4667
-8.63367
9.10695
-27.133
0.368002
0.19669
-17.5919
-25.6267
9.52807
-8.65836
-0.261834
-13.2571
-13.876
14.3902
-14.197
0.023076
-14.9538
-0.43685
-14.7825
-14.3128
-0.240079
-14.5194
21.2175
-1.02087
0.61182
-20.6319
-1.13454
0.622396
-1.0501
0.81066
0.63582
-1.11592
21.8805
0.495047
-1.15798
0.518407
0.730296
21.3215
-7.08296
-10.6083
7.35032
10.3409
7.43182
-10.2412
-7.32783
10.137
-10.6145
-7.18228
7.34976
10.4469
10.2227
-10.4209
-7.00033
7.19849
3.14943
0.327376
-10.56
0.197443
10.3837
3.28503
7.26488
-7.13208
11.4881
-1.58437
-9.9038
-9.71401
-1.55913
-1.59365
-10.0141
-0.0140032
-1.68111
-10.328
11.4477
1.70425
-1.66393
1.73366
12.2992
-10.609
2.71599
-19.4295
-1.03726
17.7508
18.9364
-20.767
2.71313
-0.882394
-0.820647
-20.5746
2.66637
18.7289
-20.9537
2.67712
-0.876348
19.1529
-17.9282
21.5292
-0.884942
21.5782
-20.57
-18.0825
18.658
2.67503
-4.24746
9.20518
-6.94692
2.96803
-4.79564
10.1232
-8.29568
-8.69453
-5.31191
10.7073
10.5969
-5.06971
-9.15619
5.28746
-1.4509
-8.08419
-1.85514
10.1106
5.76594
-4.78375
9.7287
-3.9596
-4.20273
10.1161
-1.30972
9.90866
-4.10235
-4.09774
8.9579
-3.63401
5.40057
5.54876
5.71792
5.24037
-3.78936
9.64858
-1.78471
-9.49599
-9.12507
10.9913
-9.21135
-0.0453902
-9.89417
-1.80155
-12.1481
-10.9266
-1.84127
-10.3523
10.0197
5.8677
5.28094
-21.2581
5.85137
9.9889
5.41794
5.84601
10.0737
5.5962
5.36308
5.91034
10.178
15.3188
-11.1556
5.85656
-11.29
5.35082
15.4995
10.0556
-19.3895
3.70788
5.07328
3.73007
-19.1078
5.13647
5.01342
3.66978
-19.1042
10.6
3.74226
-19.4061
5.06388
-8.78049
-15.6657
5.05667
-15.6104
-8.77824
3.7125
-19.3752
-11.5591
14.6256
10.1576
-13.2241
9.99897
14.3956
-13.2584
-13.8562
15.0049
9.95581
14.9837
9.97847
-13.9926
4.20946
-1.11022
-14.6584
-1.16751
15.376
3.90901
9.96451
8.96232
3.43765
6.72795
-18.9101
3.35501
8.84556
6.70957
3.31322
8.87832
6.66126
6.98804
3.53485
9.51952
15.5522
-9.95254
3.36264
-10.0009
6.64297
15.5545
8.86691
0.876819
-13.5438
5.9353
6.73153
6.10429
0.865141
-14.5191
7.54945
8.5912
1.45733
-16.1057
6.05711
-15.707
1.23821
6.0472
8.42158
-14.1537
7.06319
7.96724
7.20305
-15.2525
-14.5624
5.91862
1.2318
-3.19943
13.7581
-3.89371
13.2528
-3.6844
-3.36357
-6.57944
14.0496
-3.99351
-3.47664
-3.62695
13.627
-3.36343
-6.90992
10.0119
10.1439
-3.80101
-6.85891
13.2439
-3.29446
-1.09047
0.0396527
-7.51548
-7.39992
-0.274843
-0.308063
-7.72103
8.72629
-0.517575
-7.30935
7.66402
-8.53856
-0.215941
-8.8283
8.0386
-7.8509
-7.03592
-23.9592
8.18474
-21.8769
-5.9827
19.6083
-21.2206
-6.32061
-20.896
-6.02237
-29.1577
1.65668
1.61371
-22.5866
-27.3692
-6.14715
-20.2432
-6.87869
-7.46542
-20.5706
17.3566
-20.4355
-6.84893
10.0079
-20.0843
-7.40436
-10.238
-27.5971
-27.7624
-10.21
-7.37917
-20.6158
10.655
-0.0721839
-0.305909
-10.2086
-0.389001
-0.0344036
-0.248101
10.9097
11.0646
10.6037
11.206
-0.175897
1.9252
-18.6062
-0.628558
17.3097
17.5201
-18.7262
-0.649183
1.85533
-18.8151
-0.600744
1.81636
17.5996
-0.702789
-18.8442
1.80253
17.7444
1.32819
19.8754
-19.2783
19.4421
-0.593685
1.21697
17.9557
1.84393
-3.44892
-9.44931
4.60267
-9.36135
-10.1362
9.26076
-10.5466
5.11393
1.24802
-9.81083
1.22668
4.89397
26.5383
-18.0891
-11.0286
2.57935
-10.9662
-17.3472
25.8315
2.48183
2.26796
-15.7966
23.9881
-10.4594
-17.1349
26.2388
-11.6773
2.5734
8.79138
15.0779
2.66901
14.2652
-16.44
8.76089
-10.818
25.294
-0.0404557
7.31189
-17.4824
10.211
-17.6942
-0.0822894
7.4139
10.3626
7.46456
-0.0630329
-17.7965
10.395
10.1696
-0.0888877
7.20047
-17.2811
10.1804
-17.511
7.29014
-17.7883
10.2744
10.2585
-17.5998
-0.0653012
23.544
0.159028
-23.2725
-0.430528
-0.17182
0.163295
-25.1981
-24.1344
0.245574
-0.260983
0.226156
-24.8637
-0.257803
24.2992
23.8247
-24.5799
23.9245
0.202888
24.351
-0.300125
1.63652
-0.924423
20.3011
-0.816848
-20.8918
-0.869173
-0.775111
0.803701
22.6258
21.8853
-0.780375
0.796059
1.46327
-0.724639
21.8287
-0.899354
-22.117
-0.6636
-0.780048
0.630169
22.3097
23.0585
-0.599678
0.808355
-7.61572
-8.40697
5.67326
5.79277
-8.52949
-7.66409
10.3004
-8.30877
-7.53829
5.54673
-8.62045
-7.72123
5.85086
-16.1997
-1.81514
-1.83234
-8.57457
-16.1879
5.75229
-7.71985
-9.24033
1.25105
-0.489565
8.47883
1.40212
-9.26466
-0.643025
8.50559
-0.545313
1.27799
-9.1456
8.41286
8.42091
1.33404
-9.26555
-0.489524
-0.799446
-7.92172
-0.519141
-7.84924
8.45191
-0.809796
1.30894
-9.20437
-16.1256
16.5511
16.2703
-16.4213
-0.0621974
-15.6762
15.7384
-0.0210307
-16.5662
16.617
-15.9513
0.00636803
0.319124
-17.0847
17.0701
-16.8278
0.106688
20.4883
-18.4245
-2.17053
-2.03781
19.2751
-17.3875
0.150131
18.8127
-16.9006
0.155605
-2.06776
-16.9092
18.8283
0.168057
-2.08725
-17.3696
-1.8482
19.3245
-1.91002
-17.4974
-16.7444
-2.01303
0.15832
11.6856
9.79245
-28.0763
6.59825
-27.9452
9.74869
6.52393
6.58501
9.67881
-27.8168
9.59592
-27.4841
6.45302
21.4122
-16.2662
6.53972
-16.2602
9.72717
21.3039
-27.9743
-1.53425
0.816298
-19.1749
-1.54631
1.29171
19.7759
-1.60973
0.879546
0.877445
-1.65745
-0.639861
-21.4644
-20.7975
0.982687
-0.679221
-1.70082
-9.88834
3.52284
7.01942
-0.562959
3.42793
6.64369
7.00321
3.56398
3.56174
6.82264
-6.29772
-10.4766
6.88602
-10.3657
3.50499
-6.30371
8.10359
-9.12442
1.06348
-9.37226
-9.5415
-0.00576637
-9.6396
8.42763
9.78867
-10.1127
9.49113
8.62494
21.215
-9.73212
2.50493
-13.9877
-13.9556
-9.7122
2.52229
2.53458
-9.82291
-14.5775
-9.78152
2.53601
-14.2044
11.465
7.21539
2.53469
7.19103
-9.68159
11.5225
-14.0886
0.00972443
-20.5033
3.69959
16.7941
-19.8204
3.78367
-0.011073
16.0479
16.0055
-19.8194
3.84188
-0.0279343
3.8351
-20.2124
-0.0461966
16.4235
3.74004
-20.3581
16.6278
-19.8889
3.80859
3.85401
-20.377
-0.0293473
12.2208
4.42675
-16.6476
4.00925
-16.2521
-16.0573
4.19688
-0.00651558
4.53529
-16.9197
12.0387
17.2301
-17.048
16.0479
12.5505
4.67304
-6.67844
4.31907
-19.0404
21.3998
-18.8527
4.25966
-6.57493
21.168
4.07212
-6.44198
-17.5128
19.8827
21.397
4.3459
-6.63074
-19.1121
14.7172
-25.7271
4.33148
-25.0932
20.9577
14.5401
-18.8701
-6.48095
-2.15834
-7.6126
-11.4496
-11.5976
-7.6904
-2.58889
-9.03969
-12.0897
-2.82971
23.1153
-8.42279
-12.1433
-2.54923
19.5538
-14.0399
-7.67215
-14.6304
21.0786
-12.0031
-2.59145
9.89294
-10.9232
-14.6458
-10.9694
-15.2747
16.4771
-10.4959
-15.7133
-15.6999
-10.5783
-6.09065
-0.844142
-0.833504
-16.2266
-5.962
-10.582
-3.98024
-16.0494
-15.6568
-3.76134
8.8984
-15.584
-3.81022
10.5111
-15.5653
-3.81059
6.82485
-19.9114
-19.4139
6.72589
-16.1261
-3.78963
-16.4704
5.26338
-4.58967
5.22462
-4.44548
14.5377
4.99246
-4.49734
-4.61966
5.47486
-21.4512
-11.4593
-11.5387
-4.68797
-21.4281
5.34917
-7.30904
10.6753
-9.24622
5.87998
6.03774
9.86939
-8.91632
-6.99081
-9.63945
10.6572
-6.90287
5.88513
10.7018
-9.71731
-6.87841
5.89383
4.00788
-1.00843
-10.3085
-1.01737
11.063
3.70584
5.98754
-6.95099
15.2911
1.01319
-1.03137
-15.3994
0.892021
-0.664568
15.172
1.05124
-0.815539
14.0718
-0.737308
0.819885
13.6592
14.3155
-0.219926
1.19562
-0.236635
-0.847326
13.3436
14.1582
-29.5579
27.7336
10.1252
-8.30079
29.0288
10.6959
-8.84411
-8.31304
27.9444
9.18886
9.84536
26.4658
-8.22571
-19.3729
-1.286
-8.89892
-1.21969
10.8756
-20.2116
28.771
2.5777
-23.4886
18.8141
2.64665
-22.0964
17.1093
2.34047
-23.6206
18.1596
2.44857
18.3355
-23.9859
2.32914
20.875
5.09221
-23.3895
5.40677
18.1149
20.6963
2.48245
20.3353
-12.6728
11.915
-14.7618
13.8671
-19.4206
-12.8864
12.1987
13.7878
-15.1775
34.0658
6.37307
6.3769
12.927
34.3779
-14.217
20.1137
0.670846
-0.396394
-20.2414
0.56531
20.0898
-0.413651
0.591144
19.0474
-0.333502
-0.378411
0.668154
20.2412
19.685
-0.254596
0.683317
-0.177384
-0.37894
19.2985
19.7123
5.83919
-7.52283
3.09265
-1.40896
-2.19014
-7.37012
3.40289
2.99756
-8.45762
-1.4693
-6.97289
2.73004
-2.15264
-1.14553
3.96808
3.0166
3.91321
-7.24889
-0.910179
-2.09471
16.1431
-1.10183
1.3453
-16.3524
16.0496
-1.0527
1.35527
1.28637
15.923
-0.956848
-0.932184
16.1456
1.36137
15.0989
-0.282544
1.3264
-0.260026
-0.993735
14.8049
15.8312
16.605
8.22763
-1.40991
-23.2333
8.18696
16.4113
-1.36507
8.1207
15.8678
-1.21685
-1.37645
8.53432
17.3697
15.1401
-6.75503
8.21983
-6.75727
-1.33604
15.1792
16.5426
22.6667
-13.4561
13.5023
-22.713
13.7576
-13.9656
-23.0817
23.2896
-22.5769
-12.7855
13.2767
22.0857
-14.0738
14.1546
-23.5665
23.4856
9.10781
36.9132
-23.3545
36.4826
-13.6173
9.09603
13.7434
23.0017
14.7042
-11.1271
10.1093
-13.6027
-11.0273
10.1337
14.4963
10.0054
-10.7762
13.7197
-11.3826
10.583
14.4102
3.00921
0.85795
10.8371
0.857602
-11.4511
3.30575
14.1688
3.56086
-16.3163
3.26857
3.28348
3.67943
-17.2628
9.98896
3.60334
-16.8531
3.26083
-17.0073
3.6243
3.3121
-13.3815
6.93039
6.98688
-17.0848
-13.3395
3.26259
3.63644
6.84678
5.46525
-12.312
6.54026
-14.3318
-13.3889
6.33114
0.0165269
7.39247
-15.301
7.08304
13.617
-13.8533
13.6233
7.36319
6.27031
0.429659
-13.8857
13.1724
-13.862
0.689468
-13.3142
0.528579
0.0404288
-14.455
0.448966
0.0872246
14.2232
-13.8808
13.2596
0.646245
0.591666
-10.5151
23.3873
14.8615
21.9667
14.315
15.4135
23.2026
-28.0588
23.3634
15.4015
-38.1805
12.515
15.1503
12.5572
-38.5956
23.0518
-1.54362
4.7311
-2.58064
4.77543
-1.58301
4.70932
-1.51084
-0.598456
4.45104
-1.42961
-2.17522
-4.04709
4.67869
-4.15344
-2.1378
-1.58195
20.6314
-20.3626
-0.0504545
-0.218271
-20.5205
-0.245064
0.262271
0.00237747
-19.8147
-0.00710892
-0.0463761
-20.186
0.0200219
20.5341
0.0117717
0.0856714
0.0522413
-0.0386677
20.3224
-20.357
-5.3365
-1.50494
19.8658
-13.0243
-1.39153
19.36
-5.09122
-12.8772
-12.8714
-1.26337
19.1886
-5.05374
19.6569
-1.369
-5.15727
-13.1305
14.5876
-6.64145
-13.2826
-6.60722
19.8033
14.3726
-1.35714
-5.10603
22.2946
-6.89439
-26.3157
10.9155
-7.83084
22.9922
-26.2969
11.1355
-25.2445
21.9209
-6.39454
9.71817
10.9896
23.2231
-7.88438
-26.3281
33.5779
14.7744
-26.0576
14.6539
11.0932
33.4217
-7.65776
22.8312
-4.56388
-12.1096
7.23089
9.44257
7.25913
-11.9524
9.1129
10.9531
-13.7553
7.75167
-13.4314
7.57762
10.6988
-17.2697
2.59212
10.1137
2.60399
-12.6146
-18.4657
7.62632
25.931
-14.3846
10.1037
-21.6501
10.8995
25.0201
-15.0725
-20.847
-21.7978
26.4902
-14.7071
10.0148
-15.2765
25.7771
10.6345
-21.1351
10.7511
36.8842
-21.7044
37.5963
-15.9456
10.792
10.8158
26.5905
-1.14527
-11.4813
12.6266
-11.0236
12.1099
12.5571
-11.3671
-8.24398e-05
-12.1952
13.2143
-1.51755
-13.4968
13.8691
-12.5411
-1.43101
-12.0658
-13.3201
-11.0257
9.70737
12.8733
-9.25259
-12.82
9.19894
-11.7459
-17.2533
12.586
11.533
-12.0148
-15.405
-2.26548
0.489548
-11.5444
0.5061
10.1016
-2.96514
-14.205
-11.5163
9.4939
8.20139
-6.17891
-6.33305
9.57505
8.23685
8.20775
9.34684
-6.08593
9.70071
8.35034
-6.437
-1.89093
-17.9404
8.31503
-17.813
9.58903
-1.87221
-6.36752
-11.661
-0.592281
0.59995
11.6533
0.144754
-0.20294
11.8625
-11.8043
11.7284
-0.179419
0.0973658
-11.6464
-0.203308
0.153496
11.9994
-11.9496
-11.899
-11.5395
11.7774
-11.6547
-0.0995343
-11.9505
0.20761
-11.8767
23.5998
-16.5581
16.0328
-23.0745