/*--------------------------------*- C++ -*----------------------------------*\
  =========                 |
  \\      /  F ield         | OpenFOAM: The Open Source CFD Toolbox
   \\    /   O peration     | Website:  https://openfoam.org
    \\  /    A nd           | Version:  12
     \\/     M anipulation  |
\*---------------------------------------------------------------------------*/
FoamFile
{
    format      ascii;
    class       volVectorField;
    location    "102";
    object      U;
}
// * * * * * * * * * * * * * * * * * * * * * * * * * * * * * * * * * * * * * //

dimensions      [0 1 -1 0 0 0 0];

internalField   nonuniform List<vector> 
44296
(
(0.000412244 0.0859081 -8.69976)
(-0.0125157 0.217099 -8.59024)
(0.00236693 0.0480464 -9.45298)
(0.00240862 0.0679637 -9.67647)
(0.0302303 0.109799 -8.48159)
(0.00136076 0.192688 -8.99327)
(0.0299808 0.108229 -9.37983)
(0.00294028 0.0669272 -9.48832)
(0.0146393 -0.107496 -9.79375)
(0.0476831 0.030944 -10.1996)
(0.0237338 -0.00479329 -10.2381)
(0.0143014 -0.0173504 -10.2491)
(0.0266028 0.00485622 -9.91797)
(0.0411369 0.00391098 -9.9269)
(0.0275626 -0.00548498 -10.2373)
(0.0242594 -0.0161795 -10.2485)
(-0.0854281 0.771138 -7.50887)
(0.0490846 0.705933 -9.08634)
(-0.0157008 0.483645 -8.23964)
(0.0497198 0.346617 -9.37304)
(-0.0191908 0.549526 -9.16291)
(-0.0386396 0.536846 -8.13508)
(0.0128919 0.608137 -9.03782)
(-0.0117427 0.570523 -9.05716)
(-0.0106551 0.0904286 -9.16042)
(0.0109653 0.0255665 -9.93)
(0.0138739 0.0829622 -9.71064)
(0.0105835 0.0240291 -9.31759)
(0.00486897 0.0565695 -9.15283)
(0.0134544 0.0808046 -9.44362)
(0.0112014 0.0669006 -9.2265)
(0.00977205 0.0713731 -9.68067)
(-9.03754e-05 -0.0839945 -8.95761)
(0.00136879 0.109441 -9.29315)
(-0.0092836 0.11328 -8.53863)
(-0.00159025 -0.0111549 -9.91474)
(-0.00207699 0.0059426 -9.07223)
(0.00247515 0.0527965 -9.07516)
(0.0225503 -0.0209996 -9.02153)
(0.00751694 0.0741729 -9.05488)
(-0.00454002 -0.0877413 -10.243)
(0.00506878 -0.122299 -10.6337)
(-0.0101512 0.00151675 -10.3239)
(-0.00509342 -0.0327803 -10.0564)
(-0.0058469 -0.0854614 -10.2062)
(0.00117419 -0.0540765 -10.2422)
(-0.0100418 -0.0215174 -10.0168)
(-0.00415193 0.0187452 -10.3144)
(0.0203371 0.0425394 -9.6529)
(0.0109664 0.060373 -9.49307)
(0.0038639 0.154382 -8.55129)
(-0.0140491 -0.0651438 -9.76409)
(0.00984987 -0.0329501 -9.61484)
(0.000594193 0.0837013 -9.38368)
(0.00491055 -0.0309477 -9.64691)
(0.0176638 0.0977007 -9.37012)
(-0.0610396 -0.120664 -10.0537)
(0.0227002 -0.0835304 -10.0806)
(0.0130533 -0.043935 -10.1635)
(0.0229391 -0.0579989 -9.86388)
(0.0091925 -0.0547644 -9.74922)
(0.0250107 -0.0724008 -9.82893)
(0.0209725 -0.0574123 -9.77928)
(0.0431603 -0.0467879 -10.0113)
(-0.0173697 0.137613 -9.4637)
(0.00727015 0.0884506 -9.86067)
(-0.00277972 0.133144 -9.50861)
(0.000570924 0.125366 -9.77182)
(0.00100198 0.127094 -9.42489)
(0.000944242 0.0896131 -9.50807)
(0.00301369 0.184764 -9.57775)
(0.00196193 0.137135 -9.52793)
(0.0678346 0.0218169 -10.8232)
(0.00911109 0.0754247 -10.5548)
(0.010266 0.0327338 -10.7375)
(0.0243 -0.0106435 -10.5398)
(0.164009 -0.00234614 -10.6322)
(0.016214 0.0577814 -10.6717)
(0.0228112 0.0346725 -10.5652)
(0.0434481 0.0417287 -10.6175)
(-0.0426816 0.126579 -9.81418)
(-0.0195523 -0.128288 -10.3079)
(0.0286466 -0.0194937 -10.7479)
(0.0175651 0.0069931 -10.7191)
(0.0449829 -0.107384 -10.5776)
(0.0314604 -0.0292082 -10.5904)
(-0.0192458 -0.0452301 -10.6647)
(0.024129 -0.0802949 -10.6611)
(-0.0155781 -0.144175 -10.9912)
(0.0233294 0.126479 -10.2496)
(0.018051 0.068632 -10.0745)
(0.0158867 0.0119572 -10.4965)
(-0.0074267 0.0105986 -10.8756)
(0.00297765 0.144403 -10.3297)
(0.000351491 0.00586875 -10.4182)
(0.0170763 0.162344 -10.3238)
(0.0236315 0.0274235 -10.9801)
(-0.000336619 0.0194832 -10.9727)
(-0.0250753 0.210516 -10.4455)
(0.00256922 0.244218 -9.78455)
(0.0130236 -0.0927096 -10.9302)
(-0.0081381 -0.0353438 -10.9218)
(0.0210873 0.225853 -10.1613)
(0.0236424 0.192006 -10.3417)
(0.0386122 0.0736078 -9.38038)
(0.012617 0.0617983 -9.71469)
(0.0389217 0.0448665 -9.8638)
(0.00399143 0.0438759 -9.29164)
(-0.00740412 0.00086281 -9.31324)
(0.0157318 0.0309864 -9.71451)
(-0.00532296 0.0229839 -9.34246)
(0.0158705 0.0374739 -9.51751)
(0.0333154 0.0179156 -9.80102)
(0.0189773 0.0185468 -10.1668)
(0.0106649 0.0386899 -10.1027)
(0.0136201 0.0522139 -10.2811)
(0.0540864 0.0182703 -10.0542)
(0.0372522 -0.0225141 -10.1113)
(0.0153889 0.051198 -10.0784)
(0.0241675 0.0540729 -10.1297)
(0.00956368 -0.10155 -10.8315)
(0.00940093 0.0235912 -10.0954)
(0.00846322 0.0949345 -10.4563)
(0.00871609 -0.00416306 -10.5626)
(-0.0213154 -0.00266204 -10.7639)
(-0.00469478 0.0221515 -10.6894)
(-0.00798444 0.00236828 -10.6404)
(0.028033 0.0454737 -10.4874)
(-0.0157227 0.131226 -8.89737)
(0.000249159 -0.135277 -8.86633)
(0.00270521 0.0714275 -9.59634)
(-0.00319466 0.0268474 -9.11914)
(0.0139252 -0.0882997 -9.37853)
(-0.00898089 -0.0681071 -9.22278)
(-0.0107699 -0.0203744 -9.28318)
(0.00743286 0.00700503 -9.22428)
(-0.000146119 -0.0870822 -9.91665)
(-0.0127931 -0.0812155 -9.54159)
(-0.0191004 -0.114072 -10.1101)
(0.00667654 -0.0866888 -10.1469)
(0.00348146 -0.117272 -9.94944)
(0.0110821 -0.0846477 -9.87607)
(-0.0166124 -0.141321 -9.98823)
(0.00878214 -0.137179 -9.96726)
(-0.05722 -0.0640326 -9.93165)
(0.0151521 0.0557408 -9.28524)
(0.000250716 -0.112461 -10.1397)
(0.00120392 -0.122912 -10.106)
(9.69597e-05 -0.11955 -10.0994)
(-0.011413 -0.128399 -9.71029)
(-0.0121444 -0.121165 -10.114)
(0.00432208 -0.163352 -10.0699)
(-0.00347179 0.194329 -9.3012)
(0.0115112 0.0472302 -9.8096)
(0.0213148 0.0296117 -9.63655)
(0.00411275 0.0916297 -9.57162)
(-0.000375214 0.10946 -9.58603)
(-0.000104691 0.0278607 -9.63936)
(-0.0128069 0.0788765 -9.51418)
(0.0116661 0.00670595 -9.70277)
(0.0160627 -0.102435 -9.7353)
(0.0105994 0.0344639 -10.2545)
(0.0117002 0.0286082 -10.1873)
(0.0141905 0.086673 -10.3429)
(0.0159533 -0.0445638 -10.0377)
(0.0143369 0.0142244 -10.0933)
(0.00775756 0.0449464 -10.2021)
(0.0154059 0.0357942 -10.2233)
(-0.070297 -0.168372 -11.2172)
(0.0215306 0.140246 -10.2948)
(0.0158591 0.139549 -10.0689)
(0.0234038 0.19089 -9.73151)
(0.00844305 0.150484 -10.5077)
(0.0165864 0.147255 -10.4753)
(0.0203431 0.148297 -9.8735)
(0.0375526 0.188486 -10.1568)
(0.00597562 0.0200728 -10.2989)
(0.0222875 -0.0994264 -9.81395)
(0.0110933 0.0162546 -10.5339)
(-0.00589039 0.0270329 -10.2192)
(0.0220753 0.0486915 -10.1956)
(0.101541 -0.0481497 -10.4572)
(0.0207039 0.0304387 -10.2058)
(0.0180458 -0.0307178 -10.3709)
(0.0055228 -0.133921 -11.1915)
(0.00563859 -0.14445 -11.2189)
(0.00454952 0.0999529 -10.5804)
(0.00487674 -0.0110973 -10.8058)
(-0.0285119 -0.114095 -11.1932)
(-0.0220924 -0.0254832 -11.1279)
(-0.00544603 -0.00817026 -10.89)
(-0.00804358 0.0174548 -10.8072)
(-0.0114173 -0.0224837 -10.2934)
(0.00273898 -0.00176385 -10.1336)
(0.0100641 -0.0931246 -10.7343)
(0.00865366 0.0285977 -9.90526)
(0.0199288 -0.0236195 -10.3237)
(-0.000736219 -0.0205808 -10.3609)
(0.00777068 -0.047321 -10.2963)
(-0.0134243 -0.0221823 -10.5604)
(0.0309994 0.0893598 -9.67561)
(0.0289655 0.0362903 -10.4588)
(0.0178123 0.0156325 -10.3119)
(0.0207094 0.083068 -10.3702)
(0.018136 0.10929 -9.85391)
(0.0419232 0.057095 -10.2926)
(0.0312981 -0.000494743 -10.2002)
(0.0321486 0.0197559 -10.2359)
(-0.00648886 -0.0237803 -10.1133)
(0.0178533 -0.00489578 -10.3659)
(0.0105114 -0.0081836 -10.334)
(0.0123508 -0.0367011 -10.4159)
(0.0342223 -0.0165748 -10.3013)
(0.0215602 -0.0239263 -10.3241)
(0.0200249 -0.0137927 -10.2953)
(0.031144 -0.0175237 -10.3552)
(0.0380166 -0.1307 -10.8425)
(0.00567868 0.0145883 -10.4763)
(-0.00139895 0.0894739 -10.514)
(0.016688 0.0465708 -10.773)
(0.0261904 -0.0329218 -10.587)
(-0.00125311 -0.00526823 -10.5536)
(0.0327148 0.0111013 -10.6161)
(0.00334323 0.0911491 -10.4981)
(-0.0557821 -0.0187359 -10.795)
(0.00403665 0.116039 -10.6535)
(-0.00775283 -0.0787557 -10.4242)
(-0.00365931 -0.0174375 -10.8797)
(0.0444754 -0.0311578 -10.8942)
(0.00735739 0.0273149 -10.7919)
(-0.0325383 -0.0440311 -10.9204)
(-0.00217132 -0.0596978 -10.7593)
(-0.0087063 -0.0942465 -10.5206)
(0.0353569 -0.0424754 -10.5805)
(0.00419003 -0.0081451 -10.3921)
(0.0134873 -0.0360954 -10.6798)
(0.0483437 -0.0504807 -10.745)
(0.00820216 -0.0427028 -10.486)
(-0.00207315 -0.0319679 -10.7055)
(0.00881726 -0.0338928 -10.4696)
(0.0768333 0.537816 -9.49649)
(-0.0694006 0.687337 -9.33874)
(0.0518233 0.333781 -9.67191)
(0.0977051 0.218193 -8.76516)
(0.0729071 0.507264 -7.88945)
(0.0551595 0.455233 -9.1829)
(0.231863 0.269584 -8.64768)
(0.0561728 0.317064 -8.75292)
(0.0644628 -0.270973 -10.6867)
(-0.0169518 0.0834197 -10.6353)
(0.04351 -0.23751 -9.64154)
(-0.00304222 0.192494 -11.051)
(0.0105103 -0.132612 -10.7952)
(-0.000833718 -0.112232 -10.6365)
(0.00867363 -0.15206 -10.7419)
(-0.000499846 -0.105541 -10.6986)
(0.00508649 -0.0356521 -10.3767)
(0.00792118 0.0135495 -10.5028)
(0.00328952 -0.0503084 -9.87314)
(0.00595656 0.0303215 -10.2103)
(0.0195907 -0.0268968 -10.3884)
(0.00468739 -0.015347 -10.5061)
(0.01325 -0.0327743 -10.2013)
(0.022224 -0.051074 -10.2753)
(-0.0151583 -0.0831636 -9.25326)
(0.0228725 -0.0310389 -10.1341)
(0.0254363 -0.0321636 -9.98635)
(0.021951 -0.0328596 -9.75978)
(0.00363308 0.0491081 -9.59296)
(0.0148846 0.0352647 -9.93792)
(0.0173886 0.00786453 -9.57028)
(0.0268042 -0.0526098 -10.123)
(0.0105461 -0.0118973 -10.3906)
(0.00845016 -0.0333124 -10.3641)
(-0.0032966 -0.0205232 -10.5614)
(0.0138086 -0.033697 -10.0861)
(0.0097912 -0.0348585 -10.189)
(0.00319326 -0.0132365 -10.415)
(0.000424201 -0.0518313 -10.2779)
(-0.00369356 -0.0229792 -10.42)
(0.0524133 -0.162138 -10.5961)
(0.00126618 -0.0847041 -10.2677)
(-0.0186153 -0.0605131 -10.744)
(-0.00651911 -0.0138927 -10.3695)
(0.000493126 -0.0611276 -10.51)
(0.00368305 -0.0556798 -10.5129)
(0.00119094 -0.0676044 -10.5242)
(0.00842366 -0.0628502 -10.5529)
(-0.377212 -0.427265 -11.7067)
(0.129767 -0.803327 -11.386)
(-0.0161679 0.321231 -11.3434)
(0.158647 -0.635062 -10.5721)
(0.108646 -0.731813 -11.4941)
(-0.136605 -0.308808 -11.625)
(-0.146842 -0.503826 -11.3732)
(-0.119474 -0.315275 -11.3544)
(-0.000947454 -0.0212265 -10.9743)
(0.0106908 -0.0725888 -10.8302)
(0.0159476 0.143345 -10.0074)
(0.00782797 0.186101 -9.75383)
(0.00637822 -0.0298318 -10.9613)
(0.0347796 -0.029553 -10.8762)
(0.0140247 0.181839 -10.322)
(0.00920146 0.191637 -10.2476)
(0.0225706 0.108848 -11.0249)
(0.0126341 0.111195 -10.5229)
(0.00775384 0.158447 -10.658)
(0.0142611 0.0588565 -10.8069)
(0.0369264 -0.000536207 -10.9131)
(-0.00172615 0.0982465 -10.7591)
(0.000130477 0.0604724 -10.7714)
(0.0044122 0.133443 -10.6251)
(0.0622169 -0.0548675 -9.06657)
(-0.0293194 0.226358 -8.9625)
(0.0201924 -0.0842889 -8.86991)
(0.00340918 0.0950173 -9.54566)
(0.00963226 0.164343 -8.71221)
(0.0263641 0.210201 -8.78366)
(0.0276701 0.0597566 -9.11893)
(-0.00618359 0.0211991 -9.24793)
(-0.00964905 -0.0802728 -10.7639)
(-0.00499159 0.0136533 -10.8741)
(0.000832559 -0.0229037 -10.3663)
(0.00329997 -0.00385264 -10.6813)
(0.00395117 0.00541785 -11.0442)
(0.00846461 0.00109612 -11.0165)
(0.0113488 -0.0316261 -10.6441)
(0.0108266 -0.0385922 -10.6483)
(-0.0280328 0.12398 -10.1125)
(0.0100914 0.0762793 -10.1821)
(-0.0265869 0.0291757 -9.50381)
(-0.0058368 0.070092 -10.1926)
(0.00119923 0.0847456 -10.176)
(-0.00749706 0.112457 -10.1656)
(-0.00197466 0.0987926 -10.1577)
(-0.00123336 0.122263 -10.1601)
(-0.0112027 0.00670189 -10.7612)
(0.0234323 -0.00766779 -10.2838)
(0.0402426 0.0103275 -10.3018)
(0.0368992 0.0166066 -10.6428)
(0.0299329 -0.0313331 -10.6364)
(0.0308551 0.036557 -10.2302)
(0.0401357 -0.0247527 -10.606)
(0.054645 -0.0138315 -10.4104)
(0.0116157 0.0761706 -10.308)
(0.02425 0.0685857 -10.4596)
(0.0072216 0.0331995 -10.274)
(0.0126696 0.0618148 -9.91583)
(0.0109834 0.0423024 -10.1452)
(0.0139977 0.0828914 -10.2658)
(0.00908477 0.04108 -10.1255)
(0.00901897 0.0692865 -10.1857)
(0.0519194 -0.135559 -10.0468)
(0.0163549 0.034001 -10.7572)
(-0.00391269 0.216595 -9.31645)
(0.0282239 0.297453 -9.43017)
(0.0818537 -0.0437238 -10.2072)
(0.0527833 0.0692855 -10.2257)
(0.0347212 0.182644 -9.37086)
(0.00749009 0.20608 -9.56213)
(0.0591108 0.120491 -9.92059)
(0.0266026 0.0360372 -10.3602)
(0.0301901 0.153201 -9.63651)
(0.0356489 0.116911 -9.23864)
(0.0292532 0.0820713 -9.70458)
(0.034771 0.0974773 -9.91069)
(0.0342829 0.123074 -9.37678)
(0.014544 0.084186 -9.71529)
(0.0348904 -0.90201 -11.1238)
(-0.011079 0.238618 -10.12)
(0.00960559 -0.320277 -10.9002)
(-0.0693304 0.531371 -11.0644)
(-0.0488982 -0.0134803 -10.7101)
(-0.0133052 -0.240443 -10.8672)
(-0.00944853 -0.311539 -10.8668)
(-0.00940193 -0.240302 -10.8773)
(0.0623206 -0.233602 -10.4632)
(-0.0339034 -0.0860408 -10.7356)
(0.00731251 0.0275864 -10.804)
(-0.000529782 -0.00580751 -10.8488)
(-0.0177263 -0.0626915 -10.7816)
(0.016941 -0.170582 -10.7074)
(0.00284552 -0.0293081 -10.8516)
(0.00561127 -0.0193913 -10.8287)
(-0.00310909 0.0915109 -8.99829)
(0.0143172 -0.00653019 -9.66641)
(0.0129408 0.0121552 -9.8088)
(0.00695936 0.0507497 -9.37696)
(0.00585547 0.0981663 -9.55918)
(0.0121701 0.0476212 -9.77454)
(0.0154803 0.0610129 -9.48649)
(0.0174667 0.0133999 -9.90879)
(0.0796601 0.0418788 -9.54092)
(0.0143838 0.0647899 -10.2282)
(0.00701645 0.0647916 -9.78792)
(0.0275772 0.0429719 -10.1494)
(0.0268212 -0.0157126 -9.89604)
(0.0101621 0.026564 -9.90242)
(0.0123949 0.00129287 -9.8745)
(0.00484773 0.0119717 -9.89364)
(-0.0278415 -0.00553425 -8.81574)
(0.0154005 -0.00977222 -9.89543)
(0.0175967 0.0415812 -9.56321)
(0.0125595 0.0413843 -9.38082)
(-0.00496415 0.0366684 -9.18244)
(0.0022834 0.0690787 -9.57097)
(0.00792681 0.0386396 -9.43495)
(0.0165897 0.0710695 -9.5763)
(-0.0461064 -0.0732325 -9.12792)
(-0.0771259 -0.0234659 -9.70468)
(0.0213118 -0.0477924 -10.0016)
(0.0159528 -0.0378937 -9.55014)
(-0.0504866 -0.0612762 -9.44749)
(-0.00732376 -0.0474155 -9.74735)
(0.00376427 0.0288997 -9.60695)
(0.0216297 -0.00172559 -9.62429)
(0.0264857 -0.0211651 -10.3563)
(0.00523161 -0.00819554 -10.3301)
(0.00314624 -0.0498155 -10.3383)
(0.0190796 -0.0458353 -9.71276)
(0.0332841 -0.0273604 -10.4091)
(0.00177833 -0.0157588 -10.3567)
(0.0140895 -0.0423338 -10.3146)
(0.0123703 -0.0161711 -10.2597)
(0.0175846 0.0890256 -9.62131)
(0.00923429 -0.011853 -9.68535)
(0.00643759 0.050613 -9.95845)
(0.016027 0.000702458 -9.83357)
(0.0216066 0.0363093 -9.4609)
(0.0168211 0.0340719 -9.63575)
(0.00898546 0.0412467 -9.6827)
(0.00582342 0.0484189 -9.60774)
(0.00492097 0.0174996 -11.1431)
(0.0265968 -0.0306351 -10.4932)
(0.0191982 0.033822 -10.7473)
(0.037704 0.0332604 -10.6995)
(0.00492611 -0.0317439 -10.8161)
(0.00881524 -0.0129892 -10.8376)
(0.00947176 -0.000760687 -10.8764)
(0.0467943 0.035436 -10.6683)
(-0.0326958 -0.0960186 -10.0049)
(-0.0461414 -0.197246 -9.63263)
(-0.0247216 -0.063734 -9.97972)
(0.00590608 -0.0145143 -10.2848)
(0.0188259 -0.121877 -10.5592)
(-0.0728915 -0.0548647 -10.3376)
(0.0172897 -0.201544 -10.7414)
(0.101199 -0.0243589 -11.2141)
(0.00898415 0.0961526 -10.0234)
(0.0202239 0.157349 -10.0887)
(0.00285442 -0.0702338 -11.1077)
(0.0239906 0.176207 -9.72643)
(0.0356825 0.103748 -9.99368)
(0.0117877 0.1128 -10.4577)
(0.00894126 0.135497 -9.78488)
(-0.00547027 0.0989355 -10.4337)
(-0.0143504 0.357139 -8.84173)
(0.061766 0.197722 -9.23901)
(0.00277999 0.583985 -9.43322)
(-0.0435633 0.0476659 -10.3172)
(0.0130828 0.148565 -9.40271)
(0.110734 0.144496 -9.42553)
(0.0190412 0.330309 -8.87339)
(0.0329531 0.232883 -8.99236)
(0.0635118 -0.0596695 -9.6115)
(0.110363 -0.0955534 -9.6986)
(0.0676026 0.0650556 -10.2773)
(0.00911862 0.0237452 -10.1681)
(0.00812649 -0.170082 -9.75965)
(0.0150995 -0.119955 -9.75231)
(0.02691 0.0362667 -9.9174)
(0.00603594 -0.00379475 -9.93965)
(-0.18688 0.786101 -9.0479)
(-0.00921163 0.723142 -8.81503)
(0.031706 0.238111 -9.5159)
(0.0625802 0.254596 -8.00808)
(0.0188225 0.790431 -8.98741)
(0.0230846 0.732033 -8.97179)
(0.0347519 0.255688 -8.58261)
(0.0232533 0.277539 -8.74508)
(-0.0312859 -0.367443 -9.52432)
(-0.44355 -0.412496 -9.03464)
(-0.340997 -0.171721 -9.22459)
(0.0102178 -0.015914 -10.7506)
(-0.0350301 -0.292584 -10.3322)
(-0.00635271 -0.452707 -9.17354)
(-0.071217 0.126275 -10.5824)
(-0.077618 0.071834 -10.5373)
(-0.00153045 0.0330521 -10.0768)
(0.0199182 -0.0108874 -9.86804)
(0.036625 0.0673478 -10.0497)
(0.00335174 -0.0105974 -10.1696)
(0.0067212 0.0403243 -10.0946)
(0.0213674 -0.0185736 -10.07)
(0.00955725 0.0666872 -10.1152)
(0.00331527 0.0494078 -10.0792)
(-0.0210987 -0.123638 -11.1051)
(0.0468221 -0.0267623 -11.1929)
(0.0212722 0.014284 -10.7304)
(0.0188552 -0.0155474 -10.806)
(0.0104928 -0.0510359 -11.1559)
(-0.00368369 -0.00209157 -11.1496)
(0.0106913 0.00141777 -10.767)
(0.0124516 0.0218084 -10.7114)
(0.0219215 -0.0239429 -9.55906)
(0.0219846 -0.0851433 -10.1973)
(0.00367747 -0.15252 -9.98538)
(0.0103871 -0.0850379 -10.1684)
(0.0324199 -0.0724046 -10.2091)
(0.026169 -0.113371 -10.5091)
(0.0221786 -0.0858652 -10.2776)
(-0.00397976 -0.0998685 -10.4962)
(-0.0431027 0.312778 -11.2499)
(0.0868587 -0.401211 -10.206)
(0.0383599 -0.291359 -11.4969)
(0.0761968 0.538353 -11.2571)
(-0.133012 0.111901 -11.1355)
(-0.00141805 -0.37677 -11.133)
(-0.0614499 0.365864 -11.1616)
(0.00908697 -0.306806 -10.7271)
(-0.00811166 -0.0680308 -9.92922)
(0.13258 0.0722395 -9.20979)
(-0.0408743 0.0921732 -9.40743)
(-0.00059358 -0.128107 -10.102)
(0.00145704 -0.140033 -9.96377)
(0.0292772 -0.0383709 -9.5961)
(0.0275532 -0.137296 -9.91089)
(0.00141377 0.0452206 -9.4026)
(-0.00648471 0.105778 -9.83159)
(-0.0272217 0.0792332 -10.0934)
(0.0377614 0.0135054 -10.2186)
(0.00315037 0.0367427 -10.2518)
(0.0324577 0.0489364 -10.5289)
(-0.00309054 0.0735596 -10.4818)
(0.0139279 0.026436 -10.2569)
(0.00893396 0.00908948 -10.2293)
(0.0403393 0.00740583 -10.3361)
(0.0166936 0.0284498 -10.3683)
(-0.108133 0.367745 -10.3031)
(0.0118491 0.133576 -10.3032)
(0.0323995 -0.00193606 -10.3165)
(0.0287249 0.00630304 -10.3659)
(0.0158627 0.106103 -10.0717)
(0.0340157 0.165091 -10.103)
(0.0119909 0.122344 -9.15378)
(0.0056579 0.0114834 -9.53743)
(-0.0242265 -0.0141077 -9.08953)
(0.00475829 0.0435004 -9.74619)
(-0.00533757 0.0473196 -9.60426)
(0.00490925 -0.0339635 -9.48107)
(0.000755648 0.119999 -9.55999)
(0.0084802 -0.00961037 -9.4003)
(0.00465759 0.0107061 -10.1246)
(0.00637151 -0.118397 -10.7607)
(0.00373179 -0.0167913 -10.2526)
(0.00448208 0.0136246 -10.0275)
(0.0134854 0.0160095 -10.2418)
(0.00502778 -0.032369 -10.6219)
(0.00936171 0.000448476 -10.0703)
(0.00923781 -0.0109557 -10.3613)
(0.0341009 -0.124596 -10.5264)
(-0.0521551 0.0136993 -10.6192)
(0.0130997 -0.025062 -10.6573)
(0.00817986 -0.0203007 -10.8564)
(-0.000189548 -0.12826 -10.7221)
(-0.0152086 -0.0593907 -10.7274)
(0.00323403 -0.0224936 -10.7181)
(-0.0126089 0.011436 -10.7023)
(-0.00111024 -0.0141334 -10.2968)
(0.0109553 -0.0292958 -10.2861)
(3.35517e-05 -0.0658237 -10.2043)
(0.00394093 -0.00911894 -10.0338)
(0.014635 -0.0245479 -10.2759)
(-0.00705669 -0.0256627 -10.2179)
(-0.00584917 -0.00630392 -10.0145)
(0.00669171 -0.0462691 -10.1618)
(0.013671 -0.0551836 -10.7888)
(0.0751435 -0.0906244 -10.693)
(0.0127047 -0.0194205 -10.2846)
(0.0391392 -0.0199484 -10.8119)
(0.0410029 -0.0897156 -11.103)
(0.0125707 -0.1095 -11.0439)
(0.0263654 0.00141545 -10.7665)
(0.0225011 0.0238599 -10.7197)
(0.00595498 0.0389265 -9.04421)
(0.0287261 0.0767352 -9.91174)
(0.0292719 0.0365948 -9.68804)
(0.0234917 0.055076 -8.93251)
(0.0125271 0.00817383 -9.17969)
(0.0131619 0.0578507 -9.77239)
(0.00166862 0.0400657 -9.02667)
(0.0171764 0.00265511 -9.62826)
(-0.0137248 0.0651425 -9.71937)
(0.0355986 0.0568226 -10.2436)
(0.0204297 0.0504408 -10.209)
(0.0368279 0.0219366 -10.1587)
(0.014655 -0.00242712 -9.92855)
(0.00977893 0.0451555 -10.2379)
(0.016114 0.0134233 -9.92351)
(0.0257028 0.0438759 -10.2301)
(-0.115953 -0.13396 -8.73039)
(-0.130653 -0.176716 -9.4626)
(-0.110196 -0.270537 -9.45286)
(-0.0193255 -0.0383838 -10.8649)
(-0.0217146 -0.0704657 -10.2423)
(-0.0115497 -0.0602531 -8.83886)
(-0.069158 -0.12031 -10.8044)
(-0.00958506 -0.14858 -10.1707)
(0.0280739 0.109577 -10.8844)
(0.0236308 0.305581 -9.95775)
(0.0323782 0.250895 -10.3282)
(0.0254105 0.244993 -9.68313)
(-0.0220438 0.275766 -10.2709)
(0.00493054 0.297295 -10.3359)
(0.00723545 0.223156 -10.157)
(0.0528353 0.171755 -10.1073)
(-0.00193782 -0.0787119 -9.71391)
(0.00256551 0.00950268 -10.2016)
(0.00139578 0.0153648 -10.1907)
(0.0101113 0.0216461 -10.2579)
(0.00649907 0.0142768 -10.0891)
(0.00461635 0.0111117 -10.0644)
(0.0134473 0.0195159 -10.1737)
(0.00334387 0.00209626 -10.1905)
(-0.0698031 -0.123084 -11.2568)
(0.0540443 0.110955 -11.2133)
(0.016746 0.0145329 -10.868)
(0.0268928 -0.0382029 -11.034)
(0.0274686 -0.0152953 -11.2945)
(-0.00732266 0.0478539 -11.2652)
(0.0297652 -0.0283453 -10.9561)
(0.00561362 -0.0409921 -10.9315)
(0.010278 0.0217891 -8.78885)
(0.0190679 0.0808879 -8.62516)
(0.0159187 0.0382854 -9.45479)
(0.0154399 0.0572828 -9.74139)
(-0.000250019 0.0671806 -8.78558)
(0.00201095 0.0811723 -8.7869)
(0.00985466 0.0477745 -9.46744)
(0.00883293 0.0384896 -9.51046)
(-0.0904325 0.0763435 -9.88667)
(0.0100773 0.119612 -10.2521)
(-0.0460626 0.0870318 -10.2559)
(0.00905508 0.0394768 -10.2932)
(0.00868534 0.0858051 -10.2684)
(0.00515441 0.181572 -10.2468)
(-0.00189327 0.0384809 -10.3566)
(-0.000508955 0.0983756 -10.3508)
(0.0713783 0.042269 -9.58397)
(0.0277639 0.0188631 -9.67362)
(0.0211985 0.0266097 -10.2062)
(0.007606 -0.00771083 -10.2556)
(0.0134329 -0.0617364 -9.68374)
(-0.0259931 -0.0371465 -9.68773)
(0.0157776 0.002453 -9.85886)
(0.00242142 -0.00219719 -9.97998)
(-0.00130522 -0.0692159 -10.5966)
(0.00193709 -0.0427131 -10.5314)
(0.00984257 0.0325182 -10.354)
(-0.000165502 0.0483581 -10.3977)
(0.00437806 -0.0437675 -10.5903)
(-0.000764964 -0.0578425 -10.632)
(0.00409854 -0.0166002 -10.4433)
(0.00322112 -0.0299645 -10.5188)
(0.0050351 0.170289 -10.4028)
(0.0187495 0.0589417 -10.4909)
(0.0154547 0.127127 -9.89051)
(0.0152925 0.170625 -10.5653)
(0.00861046 0.18136 -10.4899)
(0.0030525 0.182743 -10.3202)
(0.0036447 0.142059 -10.3761)
(0.0111293 0.15223 -10.217)
(0.00444912 -0.122618 -10.8901)
(0.0338961 -0.0381938 -10.5252)
(-0.040742 -0.0525292 -10.8568)
(-0.0059134 -0.0212002 -10.8316)
(-0.0122052 -0.0787525 -10.9078)
(-0.12671 -0.0303163 -10.8855)
(-0.0195461 -0.0523257 -10.8934)
(-0.0240901 -0.070455 -10.8535)
(0.0507972 0.163518 -10.4995)
(0.000639946 0.152556 -10.5994)
(-0.00664085 0.115822 -10.9873)
(0.026034 0.227477 -10.4927)
(0.00682265 0.140226 -10.56)
(0.0152267 0.156861 -10.5777)
(0.0348765 0.114349 -10.7482)
(0.0133462 0.149462 -10.7676)
(-0.0046447 -0.0414402 -8.94194)
(-0.0157047 0.0937743 -8.83708)
(0.0199284 0.0429014 -9.69456)
(-0.00174991 0.035359 -8.90326)
(0.00643305 0.108925 -8.95907)
(-0.00308109 0.062291 -8.95442)
(-0.00135294 0.0308052 -9.23776)
(0.0165997 0.0445245 -9.25992)
(-0.00938215 0.0965593 -8.60743)
(-0.000733912 0.131119 -8.50012)
(0.0330546 0.10506 -9.19767)
(0.00856888 0.0313579 -9.02296)
(-0.0177861 0.100503 -8.5878)
(-0.0044118 0.135331 -8.79168)
(0.0142514 0.0851618 -9.12782)
(-0.000883154 0.110295 -9.11357)
(-0.0259249 -0.00629993 -9.85815)
(0.0327685 -0.0352101 -10.1653)
(0.00294399 -0.0739198 -10.3689)
(0.0190456 0.0334483 -9.9838)
(0.0333204 0.0107193 -10.0117)
(0.00883145 -0.0244308 -10.164)
(0.000532575 -0.000402347 -10.0756)
(0.021107 -0.0278988 -10.1601)
(0.00543409 0.603285 -8.84425)
(-0.0329105 0.187253 -8.84406)
(0.00294797 0.323029 -9.56377)
(0.0310955 0.273387 -8.39128)
(-0.0168206 0.204029 -8.49839)
(0.0217649 0.264174 -8.71917)
(0.030599 0.279793 -8.4962)
(0.0304139 0.353557 -8.99372)
(0.00316409 0.0201536 -10.1291)
(-0.0266567 -0.00166823 -10.2542)
(0.0166874 0.0727007 -10.3424)
(0.0230617 0.0532052 -10.3025)
(-0.00613506 0.0598944 -10.3955)
(-0.0043664 0.0847861 -10.3533)
(0.0132071 0.0567534 -10.3165)
(0.00495159 0.109839 -10.322)
(0.0144555 -0.0465685 -9.74327)
(-0.000968329 0.0790112 -10.0778)
(-0.0056599 0.0649772 -10.2911)
(0.0109517 0.0695839 -10.3285)
(0.0169582 0.0226928 -9.91854)
(0.00305351 0.0413304 -9.97946)
(0.0070275 0.0780785 -10.2363)
(0.00100643 0.0476416 -10.2647)
(0.038706 0.0974283 -10.4376)
(0.0332512 -0.0077651 -10.6212)
(0.0150196 -0.00765459 -10.3383)
(0.0150787 -0.0681679 -10.8214)
(-0.00147205 0.0319253 -10.7533)
(0.0304823 0.0063071 -10.8836)
(-0.00218172 -0.0584492 -10.7322)
(0.0178739 -0.0790807 -10.7286)
(-0.109063 0.207672 -9.78547)
(0.00880603 0.133679 -9.90803)
(0.00623784 0.126633 -9.38504)
(-0.00517271 0.192059 -10.4664)
(0.00207153 0.197491 -10.117)
(0.00324004 0.179374 -9.58694)
(-0.00685977 0.171777 -10.0988)
(-0.01027 0.145726 -9.7923)
(-0.384117 0.076425 -10.7843)
(-0.0272946 0.220725 -10.7362)
(0.158664 0.988355 -11.6839)
(-0.0430464 -0.518217 -10.5737)
(-0.0462294 -0.184003 -11.01)
(0.0940744 -0.0270563 -10.4055)
(0.10674 0.31013 -11.2812)
(0.170927 0.0897414 -11.1279)
(0.022621 0.00276615 -10.4703)
(0.0158722 -0.0362198 -10.3942)
(0.0192621 0.0830176 -10.5459)
(0.00952234 -0.0125655 -10.6314)
(-0.00135732 -0.0127376 -10.5504)
(0.01145 -0.0525129 -10.3942)
(0.00251716 -0.00236044 -10.9747)
(-0.00557966 -0.0106156 -10.9035)
(-0.0236329 0.15258 -10.5993)
(-0.0040971 -0.0430589 -11.1174)
(0.0258885 0.200591 -10.4495)
(0.0215706 0.233093 -10.3378)
(-0.0104466 0.130566 -10.8407)
(0.0210615 0.199548 -10.7937)
(0.0140241 0.205126 -10.5234)
(0.0276543 0.29867 -10.4595)
(-0.0222781 0.656413 -9.55155)
(0.176658 0.725666 -10.756)
(0.0649233 0.37782 -9.98228)
(0.0438184 0.169471 -10.2216)
(0.111623 0.0775928 -10.3122)
(0.0672612 0.398027 -10.4161)
(0.000479691 0.174965 -10.3991)
(0.0532736 0.370522 -10.2244)
(0.0234895 0.351507 -9.16492)
(0.0369676 0.221516 -10.4826)
(0.0621025 0.195611 -10.7483)
(0.0134469 0.013505 -10.3476)
(-0.0328839 0.201211 -9.7349)
(-0.00446911 -0.0739954 -10.6739)
(0.0352923 0.039822 -9.8529)
(0.0250641 -0.0939534 -10.6439)
(-0.100564 0.321213 -10.6024)
(-0.0305481 0.306038 -11.148)
(-0.0608329 0.216269 -10.4406)
(0.0382231 0.138616 -10.5201)
(-0.0817408 0.265687 -11.0832)
(-0.132365 0.446217 -9.76461)
(0.0269302 0.137698 -11.5271)
(-0.0816476 0.234105 -11.5453)
(-0.0210286 -0.285422 -10.7535)
(0.00729592 -0.0102075 -10.8501)
(0.00121852 -0.14174 -10.8449)
(0.00332526 0.248535 -10.9143)
(-0.0156321 -0.0935014 -10.8659)
(-0.00233824 -0.0502056 -10.8888)
(0.0120867 -0.0757864 -10.8011)
(0.016554 -0.033663 -10.8393)
(-0.00587199 0.0240303 -10.4407)
(0.0118851 0.00115626 -10.3363)
(0.00012093 0.00494143 -10.3004)
(-0.0125552 0.00104716 -10.2148)
(0.00488921 -0.0104317 -10.4078)
(0.0066036 -0.00324411 -10.3659)
(0.00182065 -0.00292506 -10.344)
(0.00643923 -0.0106391 -10.312)
(-0.0290191 -0.250384 -9.68461)
(-0.0260145 -0.183997 -9.74078)
(-0.0981398 -0.305289 -10.1437)
(-0.032336 0.0245626 -10.7766)
(0.000351576 -0.236853 -10.4677)
(-0.0283067 -0.155678 -9.43683)
(-0.0245878 -0.164886 -10.7705)
(0.0274013 -0.262928 -10.4023)
(-0.0293298 -0.0188871 -10.3921)
(0.0175921 0.000469814 -10.3872)
(0.0190839 -0.0476382 -10.5003)
(0.0385069 -0.0232291 -9.78882)
(0.00335449 -0.0506148 -10.6149)
(0.0112719 -0.0519394 -10.5154)
(0.0180311 -0.0954833 -10.0755)
(0.0251756 0.0744889 -9.87605)
(0.0144328 0.109704 -7.98085)
(-0.0274602 0.0109507 -8.63971)
(0.00586382 0.0924051 -8.83684)
(0.0241091 0.0546242 -9.54026)
(-0.0146778 0.182345 -9.38797)
(0.0274643 0.097531 -9.17742)
(0.00625359 0.105276 -9.33483)
(-0.0718362 0.0604653 -9.25996)
(0.0340917 0.0815575 -10.2132)
(-0.00771448 0.0186647 -10.21)
(0.00637085 -0.129545 -9.59424)
(0.0253225 0.0290052 -10.1328)
(0.00591998 0.0310674 -10.2371)
(-0.0169815 0.0197407 -10.2141)
(0.0118279 0.0131498 -10.0148)
(0.0168567 0.0599951 -9.9283)
(-0.00619621 -0.0842846 -10.5899)
(-0.0228145 0.107721 -10.6789)
(-0.00609295 -0.0446906 -10.6844)
(-0.00297944 -0.0658933 -10.4356)
(-0.00718797 -0.0848667 -10.5868)
(0.00820425 0.0217891 -10.6559)
(-0.0173749 -0.113351 -10.5309)
(0.00223166 -0.0846876 -10.5755)
(-0.0187161 0.119677 -9.51152)
(-0.0206584 0.166518 -9.31478)
(0.00565077 0.151527 -9.64131)
(0.00797514 0.00479265 -10.2272)
(-0.0289276 0.12773 -9.85608)
(0.00340533 0.230284 -9.75421)
(0.0124342 0.0400529 -10.385)
(0.000954647 0.0968064 -10.5897)
(-0.0144612 -0.310035 -9.69046)
(0.015033 -0.0438577 -10.1998)
(0.0189311 0.0171153 -10.0638)
(0.0210982 -0.00566202 -10.2874)
(0.0138559 -0.0493119 -10.021)
(0.00473694 0.0177119 -10.1299)
(0.010656 -0.00956764 -10.224)
(0.0394362 -0.00185567 -10.1364)
(-0.0349309 0.585206 -8.0207)
(-0.0166421 0.364892 -9.36411)
(0.0307246 0.346928 -9.95843)
(0.0206583 0.122348 -10.1842)
(-0.0325241 0.09831 -9.20728)
(-0.00176063 0.201382 -9.54594)
(0.0150702 0.213561 -10.0224)
(-0.00665963 0.400653 -9.73392)
(0.0416887 0.123 -10.0722)
(0.0200772 0.0810002 -10.5669)
(0.0247112 0.10417 -10.2256)
(0.0300825 0.124794 -9.37851)
(0.0253097 0.0963596 -9.93916)
(0.0177542 0.130461 -10.2101)
(0.0384651 0.100345 -9.54631)
(0.0170429 0.129522 -10.1008)
(-0.0116422 -0.171185 -9.62466)
(-0.00894343 -0.139484 -9.34936)
(-0.0291576 -0.056402 -9.40077)
(-0.000813471 -0.0498845 -10.3254)
(0.0465527 -0.107648 -10.7141)
(0.0344769 -0.146871 -9.53422)
(0.0183272 -0.0835701 -10.6511)
(-0.0132796 -0.0810169 -9.71816)
(0.0198192 0.0126659 -10.8775)
(0.0167232 -0.0434531 -10.9641)
(-0.0308253 -0.206263 -11.2437)
(0.0245785 -0.0142018 -11.0572)
(0.0211428 -0.00769274 -10.8575)
(0.0138577 -0.0646107 -10.9495)
(0.00253203 -0.0138751 -10.9759)
(-0.00664101 -0.11642 -11.1144)
(-0.00570139 -0.0737793 -10.5923)
(0.0235177 0.0246403 -10.4535)
(0.00946509 -0.0626874 -10.4352)
(-0.00125251 -0.0556011 -10.6133)
(-0.00466678 -0.0696145 -10.6017)
(-0.00323913 -0.0542286 -10.5574)
(-0.0034748 -0.0713982 -10.6041)
(-0.00421955 -0.0737105 -10.5758)
(-0.00495623 0.0198342 -10.5251)
(0.0944798 -0.00145851 -10.2692)
(-0.00417685 -0.0369586 -10.3722)
(0.00144124 -0.0601959 -10.3477)
(0.0185546 -0.0981546 -10.9168)
(-0.00608697 -0.0691566 -10.3265)
(0.0201399 -0.0601805 -10.3651)
(-0.0192283 -0.0392759 -10.3771)
(0.0110887 -0.0803103 -9.13339)
(-0.000620863 0.123883 -9.05859)
(0.00980189 0.228737 -9.10969)
(0.00501608 0.068628 -9.62796)
(0.0118408 0.0963877 -8.96322)
(0.00997211 0.120502 -8.9737)
(0.0161765 0.164302 -8.928)
(-0.0226155 0.163361 -8.98583)
(-6.7126e-05 0.438476 -8.37189)