/*--------------------------------*- C++ -*----------------------------------*\
  =========                 |
  \\      /  F ield         | OpenFOAM: The Open Source CFD Toolbox
   \\    /   O peration     | Website:  https://openfoam.org
    \\  /    A nd           | Version:  12
     \\/     M anipulation  |
\*---------------------------------------------------------------------------*/
FoamFile
{
    format      ascii;
    class       volScalarField;
    location    "50";
    object      epsilon;
}
// * * * * * * * * * * * * * * * * * * * * * * * * * * * * * * * * * * * * * //

dimensions      [0 2 -3 0 0 0 0];

internalField   nonuniform List<scalar> 
44296
(
27.4084
21.074
0.201596
0.0139818
19.5531
8.42313
0.00200942
0.00352663
2.75071
0.35227
0.0600481
0.0864668
1.19833
0.635132
0.0889102
0.0816444
35.4143
53.5601
29.416
3.2074
35.5949
48.031
30.7672
34.9888
8.41231
0.0498817
0.0211777
1.38634
0.00562372
0.0166536
0.573833
0.0603743
15.8173
2.89974
17.1477
0.000174706
4.55072
5.4007
7.95411
7.45297
0.0195779
10.7625
0.0170978
0.119288
0.01915
0.067364
0.108503
0.0105159
0.0198605
0.0799898
14.0895
0.0163854
0.0199839
0.756182
0.00761538
1.08652
19.5808
1.12242
0.0157428
0.0299371
5.76357
1.57543
0.0125979
0.0183272
5.36389
0.0189807
1.16987
0.921784
4.12451
2.26762
2.14552
1.64993
3.39607
0.571575
0.871789
0.895376
3.24969
1.32029
4.96237
1.44142
26.1338
72.5006
0.971611
1.71233
27.9092
4.41274
1.99944
2.1885
2.29776
0.0150359
0.107695
0.00293405
2.41784
0.853535
0.05398
0.235355
10.2338
12.1552
1.01316
0.0230006
5.00409
10.9111
0.300868
0.274469
9.56093
0.0235643
0.21543
0.937685
4.34009
0.284186
1.80948
0.313424
11.1492
0.0203589
0.0117362
0.0190284
0.215789
0.0148121
0.00857948
0.0138077
14.41
0.758561
0.00795754
0.0226526
1.45813
1.79104
0.399754
0.168618
33.0399
35.9625
0.0248822
2.27174
13.9554
25.6051
6.18794
6.38121
0.636099
9.40982
0.188417
0.0431988
0.863725
1.67077
0.451643
1.02492
0.0444656
1.15742
0.0212715
0.0231392
0.0978077
1.36143
0.0213796
0.801824
0.321539
0.0520069
0.0796466
0.0202504
0.0290279
0.0762428
0.92164
0.025007
10.4098
0.121142
0.0217697
0.0211439
2.48884
0.442887
0.137663
0.160109
3.0335
0.320193
0.0735777
0.0217111
0.333793
0.0427625
0.0571982
0.0372917
0.014459
18.4921
0.683415
0.0184896
0.00886483
1.88715
0.0121166
0.567716
15.1397
16.2344
0.0199504
0.0229559
15.3712
8.20243
0.193522
0.00228707
0.0193609
0.308348
0.22
0.0381474
0.0495128
0.1731
0.0973198
0.497289
0.0921421
0.421624
0.135924
0.67611
0.0220837
0.113086
0.171525
0.150997
0.314714
0.185365
0.122216
0.810345
2.03744
0.226956
1.37024
0.181427
9.59414
0.0216473
0.00222647
3.08908
3.30116
0.0230486
5.85022
0.00865883
27.7752
9.91835e-06
27.3007
0.00904088
11.0464
12.085
0.00409538
9.21485
4.34819
0.211731
0.100033
0.0120497
1.39363
0.163017
0.00148753
0.0226588
7.62764
8.76024
0.749887
0.650294
6.2731
2.60309
2.57382
1.98075
19.3121
3.47411
18.0372
0.00145516
9.35067
5.5701
9.18845
6.61711
0.0108082
0.249127
5.47874
0.0207131
0.00882483
0.0459998
0.221295
0.908646
0.110414
0.0178818
0.014587
0.216857
0.144604
0.130789
0.332705
0.0197803
0.398035
0.0259147
20.6263
0.122797
0.207716
0.0206816
0.0411538
0.0179901
6.72306
0.0240513
12.155
0.0167994
2.71051
2.96269
4.49479
4.49381
0.417748
0.299105
0.0878569
0.259594
0.661522
0.202693
0.204123
0.240459
17.1795
12.8143
0.0230022
0.0190348
11.7562
6.33832
0.0194996
0.00845978
0.626372
0.100462
0.00950472
0.417003
0.205578
0.115593
0.905498
0.0111252
0.823459
17.297
0.280937
0.464434
3.18063
4.82907
1.11609
1.73559
32.8554
26.1949
0.0237046
0.0239138
9.13453
21.9691
0.024714
0.0353001
0.298779
0.0190197
4.78409
0.0252824
0.132944
0.0502154
0.0286165
0.0732711
15.0397
0.0171783
0.0251312
0.0153643
2.4576
0.174156
0.0393659
0.0160788
0.0151554
0.496115
0.0213064
0.14577
0.018672
0.0177559
0.0208597
0.0201311
0.132603
0.021256
0.0201877
0.0601778
3.27239
0.00189026
0.233782
0.0228631
0.0433969
0.0905636
0.0193495
0.0223197
0.0391982
0.0770499
0.0217814
0.0201522
3.37859
0.894406
21.2927
1.28968
2.49174
0.676887
0.93779
1.0468e-05
13.222
12.7579
0.404495
0.783461
4.3113
8.63423
1.42048
1.83668
17.6366
0.653747
0.011014
0.457688
1.92837
0.299947
1.10249
0.0150127
25.0912
0.0251158
11.7178
0.0963065
7.12869
10.2284
5.69032
5.75521
12.4441
0.00631849
0.580461
0.235377
2.33785
0.608253
0.604146
0.204794
70.4461
70.6038
0.00339408
2.0965
29.9602
6.96739
0.104734
0.0120476
10.2891
0.412718
0.122781
0.0216988
1.83505
0.510237
0.155599
0.0210059
0.0837765
0.418887
0.0138927
0.00509968
0.387646
0.424173
0.0364419
0.190459
1.45615
0.0185434
0.236629
0.0937873
0.486515
0.223062
0.831516
0.358562
76.6797
61.2216
57.7058
0.265333
56.3535
51.6908
12.5223
18.1562
0.286648
0.120913
9.51649
0.0192713
0.413039
1.88619
0.141793
2.44458
0.492208
0.341389
0.290337
0.467662
0.369891
0.120713
0.391737
0.275133
17.5059
17.0265
0.165674
0.105453
8.83873
18.9007
1.91157
2.1598
14.6842
7.2725
0.220825
0.530944
12.711
5.77224
1.1458
0.692908
110.313
46.3893
83.1844
1.38808
77.8687
110.299
27.6726
32.2583
0.613366
23.0567
0.41834
0.67251
0.709977
2.28802
0.122131
0.208836
51.7837
65.2819
0.287432
0.90213
30.7903
36.9206
3.20392
0.578359
0.182213
0.0218307
0.201352
0.0243982
0.0295848
0.114601
0.0282286
0.108748
0.153668
0.510075
0.323176
0.685663
0.337933
0.487193
0.363582
0.779619
0.613994
20.1318
15.3498
0.218229
0.919257
7.1957
1.04958
15.8211
0.230093
0.240261
0.0545396
0.0246693
0.118808
0.137711
0.0489005
0.0515881
0.282189
0.0147892
13.4479
0.26741
0.174831
0.221289
0.994676
1.448
41.7016
3.01289
38.4092
0.0123713
2.59168
7.25496
8.47638
11.921
0.017037
7.4645
0.517024
0.020048
0.0166363
2.26859
0.0180296
1.12388
28.1351
42.4809
0.0268944
2.38344
26.5127
6.95965
1.3336
0.51015
0.017811
0.0165292
0.0229577
0.0461671
0.0196894
0.221094
0.0676157
0.0229195
61.8101
79.3483
0.00899038
1.86876
10.5175
23.4772
0.249442
0.00612553
3.81446
0.439416
0.0115616
1.20025
0.542237
0.000111594
0.619353
0.0133963
5.70818
0.0256944
0.123261
0.0538673
4.15447
0.0952839
2.57418
0.126914
92.8987
73.68
81.8669
1.03622
59.8697
95.697
24.8602
60.923
13.5134
0.14928
1.46133
0.0253734
0.0310522
0.12837
0.022706
0.0277354
7.7375
0.03969
0.209118
0.0229596
0.0130817
0.0604469
0.0216096
0.150167
17.3886
28.3603
0.105456
0.693382
11.2653
20.7636
1.78034
1.82731
23.6208
24.0103
1.10683
0.018766
12.8046
24.6154
0.0348556
0.206976
25.4611
4.69108
31.5286
0.0252274
9.91031
7.57857
11.0004
7.61212
15.606
11.5135
0.283869
0.0480862
5.92396
14.0045
0.586659
0.429832
8.82456
0.0533759
5.58198
0.00867316
3.39142
0.923802
4.03503
1.97694
20.6236
0.0104973
1.08176
0.452096
6.0242
1.73201
0.157918
0.746971
0.274552
19.7129
0.191378
0.163236
0.0537108
0.693196
0.0355643
0.204252
0.280325
0.136493
16.1644
0.0949292
0.118956
0.18315
0.0422058
0.0394617
16.8929
31.3896
0.645631
1.37981
11.3381
23.6626
0.251589
0.0534222
23.5996
48.2098
0.0234108
2.33774
36.1294
11.9587
0.868236
0.0315985
45.9786
3.53712
34.0311
0.0373683
9.82709
7.18336
15.4055
9.90795
0.509006
0.015273
0.14095
0.0769994
0.00122904
0.015168
0.460051
0.20951
0.371716
0.00479156
0.0224901
0.0203384
0.0171013
0.0218958
0.0209226
0.0488441
16.9787
0.0232261
0.341165
0.0216382
0.00708057
0.486359
0.0225801
0.239026
13.3342
0.00834481
2.25019
0.736673
3.36649
1.31792
1.01737
1.0812
21.5696
0.000538421
15.6737
0.753907
9.9273
11.1229
4.37286
5.28115
11.0265
0.990121
0.0696018
0.563942
4.77246
3.11706
2.82705
2.60599
25.7462
3.06987
18.2241
0.0043424
12.6068
9.44371
4.82077
3.54918
0.0268187
3.41747
0.0248706
0.0159874
0.504245
0.494226
0.018705
0.0215197
14.8142
0.308823
12.6066
1.17512
3.55254
6.71785
2.34798
2.9701
24.892
0.0154484
1.51512
0.0140513
0.0657518
0.00129006
0.315501
1.0531
33.0129
47.8284
34.9836
2.82092
34.1048
47.2371
17.3081
23.2913
7.08527
0.445376
0.342939
0.180294
1.15827
0.212874
0.0676758
0.0235112
0.586138
0.0669584
0.0862958
0.56842
0.0906628
0.0686639
0.0390179
0.0697087
30.4006
21.662
21.3051
1.03168
20.4786
24.3487
9.27719
13.9885
13.8808
0.139697
0.0151617
0.041411
1.31301
4.6756
0.0554039
0.0710027
74.7856
55.1366
85.3729
5.40424
17.2697
54.3496
10.968
60.7776
0.156831
0.151538
18.2647
0.095033
0.14345
0.148902
0.951261
0.785292
0.0189305
1.20918
1.09959
0.00541548
0.0423045
0.551765
0.0709919
3.25757
0.271241
0.281828
0.287697
0.0608925
0.210607
0.27519
0.077464
0.121318
0.510548
0.36527
0.478373
0.000718542
0.238155
0.450828
0.000356854
1.76683
26.0544
0.698524
0.0376426
0.00593415
0.627586
0.0186355
0.00656052
0.0162769
0.0182151
0.136002
0.0262206
0.020671
0.0192217
0.0174418
0.0212741
0.0201036
0.306478
0.28536
0.266834
0.0486613
0.176467
0.282361
0.120455
0.274765
0.0476018
0.00513851
6.90837
0.185996
0.295526
0.00178722
0.833955
2.54039
0.0188798
12.7579
0.0206477
0.925148
0.0309793
0.224383
0.0222716
0.0205374
35.527
38.2298
0.0251317
0.958619
6.2032
9.2254
0.741698
0.164824
0.44667
0.0079434
3.55177
0.0329123
0.777624
0.0325651
1.77481
0.0853499
24.9014
25.0558
0.00845531
1.80161
6.31254
11.9266
3.16727
3.66779
0.176326
0.147233
0.262375
0.145509
0.297419
0.120098
0.10642
0.0855731
36.67
4.6454
45.4464
0.046335
14.7696
9.48787
19.3876
12.2989
11.6531
0.0815539
0.394014
0.0194596
0.0135805
0.353266
0.0190522
0.262892
26.5064
1.93363
23.3165
0.018901
8.0125
8.44946
15.0451
9.63615
37.0691
51.5209
43.5114
0.348788
23.844
45.2741
8.35522
27.4909
16.1513
0.00446444
0.178937
1.66541
2.55464
0.115935
1.57617
0.139429
24.0737
19.0177
2.53861
0.0155316
9.70015
11.3803
0.167589
3.13757
0.147181
1.1445
15.081
2.57984
0.00832537
2.18191
2.77963
2.04013
0.0678686
0.146287
4.51596
0.0100417
0.208272
0.601769
0.479465
1.41172
38.9166
0.0175061
6.52128
1.58604
11.9951
8.33491
7.55431
6.23421
0.272765
25.0792
32.9175
0.232624
0.21361
38.7658
0.321099
13.5963
0.259909
32.8548
30.4698
0.02693
0.119863
40.3599
0.0434534
15.8067
0.192474
0.0223933
0.184444
0.0749054
0.0794432
0.118094
0.0726021
0.114638
0.0186848
0.0760313
0.0195673
0.0231134
0.0243039
0.0251678
0.0233048
0.0267639
45.8612
41.5505
41.1748
1.19757
36.5498
51.4248
17.3762
17.0486
0.180461
0.0154521
0.0152329
0.279306
0.0687768
0.0537397
0.353157
0.0148264
12.9871
1.27934
0.208755
1.01615
4.01318
1.70733
0.53675
0.017464
0.533236
18.3451
26.2752
0.450018
0.906491
8.7218
0.91931
19.1788
0.148831
0.493946
0.0204219
0.414916
0.250695
0.352494
0.323346
0.484815
0.273369
0.269238
0.283116
0.0477536
0.188689
0.27996
0.120506
0.195402
0.280805
0.0818023
19.8196
0.757756
0.0712781
0.0271647
0.911471
1.88405
6.89919
0.0175881
0.521336
0.022941
0.000396437
0.0184841
0.188645
0.268274
19.722
15.1184
12.9655
0.806719
10.1745
13.6879
4.71914
9.45046
0.0436166
0.0185856
5.68666
0.02237
0.0223791
0.346147
0.0216588
0.879906
0.755665
0.269419
27.4384
0.0125593
1.85754
0.580378
4.42416
0.47843
34.3814
42.4332
0.798103
0.36882
11.4112
4.33153
0.475428
0.654987
1.72727
0.532633
0.0836662
0.0176208
2.78573
0.994738
4.46305
0.6179
9.34576
0.842528
38.4095
0.7734
5.72376
6.64643
7.64053
11.2804
35.938
32.7947
0.0235714
0.662612
14.8023
3.92495
0.12945
0.160584
12.3606
10.9603
0.0194017
0.0191146
9.89429
5.06802
0.292973
0.335629
25.1536
29.9793
0.697468
0.605893
14.0039
20.657
0.383758
1.2084
8.39172
0.0216989
0.459109
0.825438
4.74029
2.61886
0.617741
0.762757
15.9549
0.786754
15.9414
0.00228335
7.3748
3.06839
5.67109
2.10912
0.263261
0.261017
21.6781
0.0479406
0.228137
0.258922
0.254286
0.8581
0.1253
0.137181
0.157995
0.615578
0.395898
0.142954
0.737543
0.199927
0.257865
0.180977
14.4723
0.271949
0.239731
0.475789
0.723208
1.99971
0.00325791
0.46376
2.24298
0.653028
0.621646
0.843551
3.59425
2.08929
26.4021
0.00606444
19.7086
3.54715
8.2683
7.65659
8.05445
4.03101
24.9589
21.031
0.670223
0.8581
18.2174
13.078
2.46817
1.63837
10.3302
0.196535
0.108152
0.0420909
1.94614
0.485008
0.343031
0.0509271
81.1649
79.186
30.7763
0.591801
34.0752
48.8047
17.1974
33.7584
30.5814
39.0138
44.9511
0.956222
20.1494
41.6329
18.1094
31.5411
11.5649
0.644543
0.364419
0.0650323
0.00921756
0.487539
0.0195895
0.342556
0.0212378
0.0200593
0.0862938
0.0229711
0.0225301
0.0221101
0.0228736
0.0226174
40.7244
20.7399
0.870307
0.0225683
29.7003
16.0609
0.0393819
0.501116
18.6166
0.559656
0.0176756
0.00487411
0.424604
0.02502
0.00985941
0.0163032
43.9508
2.95791
28.3969
1.85528e-06
14.3359
12.2514
14.0316
8.85313
25.9122
20.152
0.3193
1.65942
12.6008
16.7724
2.40012
1.04085
24.875
0.00913685
25.7861
0.690913
10.7714
12.4022
2.19735
3.09008
30.2018
42.3809
40.2941
2.64329
21.765
39.5462
13.3817
29.0777
18.2632
19.1415
0.197022
0.96475
6.08951
13.8597
0.0191394
1.11589
0.159405
0.0226931
0.141205
0.0211098
0.116765
0.12645
0.12891
0.13538
14.6649
0.318041
21.2825
0.0248965
5.91811
5.93187
10.5757
9.33215
34.3237
0.00517922
30.0754
1.28936
12.7997
10.8174
5.69159
3.67026
12.1319
0.00481226
0.0149037
0.64496
0.438429
1.41945e-05
0.154127
0.0271145
0.0252716
4.59763
0.774082
0.00165558
0.0215173
2.56836
0.010733
4.8762
0.226284
0.248257
0.0221789
0.0220537
0.155957
0.122473
0.0305984
0.0385884
29.1121
0.562593
1.00632
0.0266696
1.36519
1.94788
7.54436
2.82463
91.3068
4.32998
72.1832
0.185958
11.8621
11.3248
40.793
16.1859
250.176
200.328
127.335
7.26845
142.373
165.478
61.8142
113.888
19.0951
32.5778
33.1697
0.0803117
16.9786
28.7657
8.58286
20.5099
0.379402
8.101
14.436
0.638074
0.0571936
12.7315
0.170648
4.53623
0.0143804
0.0176363
7.87781
0.230625
1.03208
1.36032
0.647737
3.49156
2.79517
0.339542
26.0721
27.4586
5.06861
0.902781
21.645
6.27393
15.1639
1.55208
0.0198044
0.0283245
3.54686
1.89888
2.60852
1.44645
0.0662816
3.71503
0.230024
0.395432
0.693342
1.09612
0.3385
0.5032
0.288678
0.272277
0.292904
0.0974343
0.180099
0.289285
0.0659194
0.16639
0.297351
0.104827
0.163708
0.0144057
0.332766
0.117513
0.21683
0.095337
56.3961
34.8484
42.7646
1.00728
40.1736
55.958
18.7928
17.8346
53.8212
60.0289
23.7162
1.77477
29.1152
29.2383
11.1344
21.2385
36.3838
23.0055
22.5196
1.11187
26.1645
25.9684
16.5968
23.0102
0.277014
0.27798
0.279027
0.029659
0.112928
0.281813
0.07861
0.218308
14.4226
0.0429359
0.0222321
0.793086
0.0167597
0.0182804
0.610652
0.205712
13.0187
0.0183331
18.233
0.0386193
6.50062
0.075496
13.9655
11.0602
23.6296
0.00201395
19.7889
2.35147
7.18316
6.65688
6.05893
2.84909
0.53856
0.0206897
15.6747
1.69711
0.288577
0.0163819
0.642413
1.40751
20.9555
0.367779
7.43667
0.0334079
12.0885
3.36751
0.0941887
1.62521
0.0396544
0.0682883
0.105797
0.0181155
0.038253
0.0734721
0.0358263
0.0986973
7.13015
75.447
91.3831
0.0444556
0.0436915
69.2175
0.0296405
16.798
21.3598
27.3096
0.0174347
0.598635
6.04981
21.8036
0.0974554
0.362693
0.483792
0.277535
0.608295
1.24465
0.232349
0.262232
0.705617
0.381732
43.047
35.6873
38.7278
0.145598
10.6956
28.8879
8.43395
29.9019
0.0224656
9.54868
3.38781
1.07899
0.160078
4.0046
0.606705
2.3177
1.4889
0.0221422
0.00886305
0.907218
1.32333
0.535376
0.0506148
0.00837514
0.481876
0.0275998
0.0198486
0.0623295
0.031601
0.0329637
0.0655713
0.031064
54.9113
100.742
0.716133
0.720786
17.7981
21.7407
0.0352067
0.0704312
32.8177
0.00633754
31.3896
1.61264
17.2546
10.446
4.56348
4.34641
0.29353
5.13456
0.103096
0.024722
0.379772
1.16903
0.072416
0.457754
17.1828
7.77024
0.296137
0.301171
13.6118
8.36831
1.53096
1.08804
0.00998147
0.0230557
0.0724809
0.000771239
0.00718618
1.25845
0.0621682
3.26507
0.0401552
46.8961
0.862315
0.120052
0.0318241
7.92969
0.055981
1.81852
12.6817
0.340875
28.6465
0.0211446
6.14722
7.70423
9.6994
9.47644
0.258493
0.262828
0.248163
0.0523519
0.211105
0.257949
0.0862397
0.122635
0.906996
2.20559
35.7898
0.00361558
0.0269783
0.0326527
0.319278
0.0601675
0.0997828
0.0239665
0.0258582
0.0343578
0.0226567
0.0402604
0.0345417
0.0269437
7.81577
0.0150855
11.8377
0.0818938
3.40953
5.25344
3.59611
4.2225
6.25257
0.121201
0.434561
0.00296927
0.214374
0.229573
7.0664e-06
0.175499
0.482575
0.474423
0.009315
0.0492021
1.67418
0.294562
0.103805
0.0155688
0.431743
0.0232755
4.1283
0.0812859
0.612329
1.04087
0.630567
1.51993
0.228732
0.0396226
0.112677
0.0852031
0.119247
0.0702841
0.152717
0.0577704
18.3334
0.754128
0.00988888
0.982211
0.0373861
0.0290121
0.0451013
0.0086009
0.0189685
0.384932
12.3881
0.0106725
0.0197753
0.0165614
0.00373113
3.90088
48.8809
3.36169
34.7889
0.00588288
2.29158
8.64008
9.56435
13.0554
34.2867
0.0194387
12.4867
1.69337
13.4362
8.70106
8.79172
6.09082
5.91149
0.47518
0.014635
0.0183953
3.66432
0.225591
0.0621314
0.019408
1.1137
0.27959
0.378886
0.187448
1.58132
0.803848
0.142708
0.643741
0.0639466
0.0155045
0.0409932
0.0557816
0.0233092
0.0265804
0.0610342
0.0303091
0.192541
0.166219
0.0357547
0.0766867
0.107889
0.0825748
0.161139
0.112575
54.6007
6.7404
42.2159
0.0444728
11.0338
11.0699
19.4983
15.4006
0.00970249
0.0141351
32.8582
1.64813
0.00706317
0.0360374
2.9179
17.5522
67.403
78.9662
50.1163
2.25825
33.3731
55.0613
6.62006
45.2445
0.278646
1.0409
8.12343
0.0283161
0.331485
0.547616
0.0467111
2.74245
18.0829
9.67816e-05
44.3781
1.31647
10.3738
9.09528
2.78914
10.5402
4.77315
0.0117582
0.490653
1.02923
3.71754
0.858251
0.00918618
0.537637
17.0977
28.1366
0.0314747
0.715413
19.4302
7.94935
0.0429928
0.0358138
0.265555
0.26866
0.267481
0.046207
0.10255
0.270603
0.0628338
0.199807
0.274941
0.2758
0.275084
0.0820438
0.163603
0.2697
0.113909
0.162665
8.43702
0.601665
1.2131
0.0228195
2.55123e-05
0.841916
2.23005
0.769124
19.7611
19.5622
0.391103
0.684085
11.5681
12.0823
1.59226
1.46174
0.00328469
21.9788
2.48366
1.58667
1.42281
5.40805
1.43764
4.08752
46.7294
1.97048
1.12732
0.0761861
3.59408
2.27134
4.56837
2.45476
0.0216589
0.0210426
0.088847
0.0232578
0.0298449
0.0217288
0.0422264
0.0569852
24.6122
24.0929
19.2414
1.23445
19.0762
27.2487
6.04489
7.40347
0.0118466
1.16142
5.57141
0.616702
0.00768938
1.07936
0.0495602
2.75819
23.9329
0.0190104
0.210582
1.35858
0.0105657
0.0160523
0.537664
0.0549558
0.270059
0.274418
0.27341
0.0348117
0.118533
0.271197
0.110362
0.179654
0.0200903
0.0278182
0.0243429
0.283564
0.0216128
0.0218329
0.0353749
0.0221201
3.16406
1.70362
1.16458
2.60435
4.84806
0.733545
1.8443
1.19967
10.6302
0.29127
20.2437
1.06992
3.68309
5.64607
5.78488
9.00822
0.145072
0.0312259
0.253544
0.0577978
0.0862787
0.0915487
0.107621
0.122931
0.169149
0.592057
0.158869
0.154939
0.150854
0.230881
0.147048
0.214278
0.0667768
0.0223669
0.0572844
0.0271012
0.0398256
0.0396721
0.0446433
0.0408667
0.188154
0.0652173
0.180028
0.0219599
0.0868163
0.0745909
0.123801
0.0702879
28.3982
33.5167
18.3366
0.907464
17.0121
21.6012
6.23087
14.4485
0.0163423
0.10868
1.11384
0.392657
0.0243905
0.434257
0.477128
1.12337
1.35809
0.0783595
0.0236343
0.0198318
0.210278
0.0464448
0.0195303
0.0221458
0.290257
0.557877
5.03183
0.104564
0.324843
0.50935
0.0140257
0.00616354
9.39859
0.0201756
0.189891
0.0561638
1.13249
0.0196232
0.736602
0.236627
34.3713
0.242237
0.668118
0.13201
0.00617047
0.625865
0.0808858
0.785026
68.9123
6.99901
40.4456
0.00312401
22.2711
18.0468
19.6718
9.02744
0.895817
0.0218156
20.3367
0.267454
0.0188873
0.191673
0.0497811
0.0603525
0.102434
0.0267807
0.169214
0.0506924
0.0329665
0.0741716
0.0937305
0.0995557
0.0813354
0.135074
0.0272639
0.07139
0.202101
0.0956501
0.0339755
0.0545335
1.35769
0.735824
0.263049
0.941535
1.51666
0.00664965
1.08372
0.352989
0.391377
1.76475
0.770272
0.873872
0.726853
0.705382
0.901019
0.87253
0.0213687
0.016888
0.360073
0.885706
0.0215965
0.0204534
0.0835064
0.310068
0.521006
0.108116
0.0565836
1.8624
0.230323
0.0938713
0.091797
0.0590516
19.2817
0.159202
36.6156
0.0204501
9.56885
10.9321
13.3209
12.513
41.2175
4.11659
34.8861
0.000453232
11.8769
9.58985
12.3974
6.05641
0.0207378
0.0288321
0.0335381
0.0105082
0.0224542
0.0221967
0.000430249
0.576007
7.66342
18.6557
32.5218
2.20686
6.40409
20.0851
3.98882
6.45923
0.0866032
0.0634803
0.293758
0.353418
0.0766683
0.0875964
0.102631
0.0953257
0.555697
0.672832
1.42598
0.590895
0.559776
0.474038
0.517901
0.51992
0.143088
0.0186096
0.0115464
1.12873
5.41745
0.915433
0.0680213
0.397231
43.2812
0.0166638
1.07438
0.0175718
0.233757
0.00560545
1.25942
0.592612
6.43182
0.0577025
0.00498865
3.00515
2.50461
0.595002
5.02988
0.00615326
16.5295
0.00931259
0.0207213
1.49996
7.30953
0.107543
3.89713
0.0156417
0.222879
0.0200418
2.41819
0.0134894
0.210371
0.403973
0.0451494
1.68874
0.21475
0.107968
0.231267
0.233431
0.102959
0.0889815
0.199361
0.130329
32.7487
1.71657
21.1557
0.0621858
13.1337
9.0517
6.92294
4.43221
9.38537
1.29271
0.960314
0.969837
7.2859
5.42136
1.28858
0.000132565
2.52511
33.8119
0.644351
1.02018
2.54811
6.70682
0.883513
2.58124
32.4677
0.810127
0.0169606
1.04148
0.0160123
0.635195
0.0773446
0.470731
0.119568
0.0236118
3.85623
0.0027401
0.39724
0.0535444
0.778167
4.64303
11.9343
0.0258228
0.120925
0.0308947
4.65224
0.0603642
2.61565
0.10777
1.6306
0.443695
0.710173
0.451793
0.542803
0.665291
0.615838
0.68509
19.9404
5.25998
14.8844
0.0316254
10.1988
8.16661
14.1977
9.51635
31.8328
36.6705
0.0192134
1.74891
6.8445
22.7022
0.253996
0.0340891
30.7627
25.9593
0.249224
0.258001
6.48633
18.989
0.513317
1.03766
27.8894
0.01601
9.88367
1.06054
8.57061
6.09436
8.17386
5.70256
5.61643
0.986797
0.165625
1.50414
3.37424
1.1852
1.45257
0.444586
5.21269
0.827188
0.0176155
0.620905
2.97694
0.0562411
0.778635
0.0782757
17.018
20.3556
0.16515
1.08291
6.72999
14.3007
1.21814
1.31506
0.590176
0.634686
0.0147645
2.51673
0.107548
0.693517
1.70005
0.0111696
11.9357
0.0125668
33.4228
0.0160485
3.30478
2.92473
0.0672268
5.02061
0.000827383
0.989887
0.0214592
1.14516
4.88971
0.000250515
0.00323322
0.015854
17.0842
2.32488
29.8842
0.911488
5.26173
6.40608
8.615
9.10225
0.0029832
27.6108
0.798632
2.32101
2.8928
7.24977
2.68784
5.20464
15.1312
19.8724
24.2283
1.88466
13.1077
24.2841
4.06321
13.5447
3.41661
0.168444
0.443921
1.16293
1.14208
1.30163
0.791217
0.245541
1.93681
0.198459
0.207594
0.0241447
1.64544
0.310381
0.420832
0.107196
12.8594
0.194291
1.06927
0.0083037
3.25335
0.413773
0.00428236
0.475574
0.275113
0.283787
0.313744
0.0274341
0.221429
0.287454
0.167398
0.196384
0.315208
2.75611
19.9971
0.000786987
0.4707
3.63299
0.000839752
14.2293
0.0210264
0.0169667
0.124755
0.0172278
0.0213762
0.0153921
0.0201578
0.0289029
3.97061
0.0177522
0.017792
0.0220568
0.964433
0.0115231
0.0522595
0.0410083
7.50975
5.14776
0.0154374
0.248583
5.87483
2.08958
0.245245
0.0201153
0.39609
0.0744464
0.0553174
0.319385
0.139529
0.0890319
0.143872
0.100473
41.6327
19.8966
0.153782
1.26043
1.98467
0.0973656
0.94829
0.528514
0.415159
0.0182819
8.18258
0.323405
0.888943
0.388666
2.72395
3.37736
9.66418
2.0468
32.904
0.758917
6.24684
2.23067
2.14047
0.0167683
21.9309
12.1426
0.283483
0.0848747
3.87012
0.427941
1.22678
0.113206
0.95775
1.86987
0.606108
0.748386
0.0530696
0.856714
0.900127
1.17667
55.7193
79.7064
60.1348
3.40243
55.1408
73.6291
37.3735
47.4102
15.7433
14.8167
0.272685
0.254361
14.5704
7.29128
0.996002
1.16645
4.28508
0.118022
0.0168627
0.93688
2.1002
2.5218
1.76092
0.297774
0.0189326
0.0527688
0.106172
0.114126
0.0219201
0.0347506
0.0248068
0.0327492
0.0202924
1.3641
19.0789
1.84848
0.00951465
3.39339
1.87145
3.36936
87.8888
66.279
48.5714
3.44239
63.5324
62.2177
6.76934
16.6874
0.408545
0.66575
0.100099
0.0188795
0.548503
0.300629
0.112787
0.107254
0.951589
4.95303
0.0571128
0.00969408
1.2676
3.04728
0.089679
1.10576
17.0377
38.1187
0.098599
4.78229
14.2074
26.0602
2.2119
2.18126
6.3908
0.0725871
0.0205806
0.419023
0.0183818
0.0196155
0.0232861
0.0183719
37.3002
37.9491
36.0755
0.10692
20.9896
46.0438
6.22701
33.5085
0.818377
3.34816
11.3578
1.10534
1.92508
5.69035
1.00343
6.81587
31.1829
45.1358
37.6234
4.16063
19.9448
33.6251
5.91368
22.051
49.6752
45.3676
54.1805
1.46421
35.8707
38.91
4.01411
12.5318
43.4685
39.9159
60.3944
4.85757
31.3821
48.7381
14.1159
33.966
39.404
0.0146473
32.7034
6.97024
15.813
6.27787
10.9252
3.20374
0.254064
0.330953
0.0385695
0.0235304
0.0710638
0.0239158
0.0498302
0.0268202
67.4459
39.5393
1.17134
1.95534
23.2474
50.1699
4.43237
4.66876
43.7908
3.59291
68.5646
0.00387594
12.6528
8.99626
17.3267
3.29819
92.9732
69.2079
53.3619
1.29088
68.9854
58.0395
10.7837
20.8105
28.4131
0.00402302
36.3954
0.739883
10.1584
12.3217
4.52798
3.23141
36.2096
38.6043
0.686052
0.0344817
18.4525
7.667
1.7324
0.770657
0.0902451
0.0714742
0.347643
0.273575
0.114468
0.0891183
0.177103
0.155317
30.998
37.4142
31.1172
0.869882
10.1404
24.2025
6.84617
24.4131
2.12349
1.29924
0.719031
1.34449
0.0339041
0.586318
2.22973
1.0845
36.6299
0.245315
1.73069
0.00729114
6.08514
6.98549e-06
1.01848
0.909609
30.8213
0.117217
11.6761
0.175636
9.61188
12.4975
8.46434
7.74313
9.06366
16.032
0.265815
1.47485
8.35366
2.89729
1.47232
1.25531
7.05346
16.1901
1.38329
0.793256
8.37018
9.40206
1.665
2.25822
22.912
7.23502e-06
17.4702
2.37919
10.6348
12.9068
4.48383
10.1746
0.268255
0.274768
0.263649
0.0413017
0.1116
0.274626
0.0379306
0.191545
0.404417
0.194425
0.0126458
0.0388418
0.719209
0.0835505
0.0481411
0.00552044
0.0210566
0.074593
9.58925
0.884593
0.235785
0.782642
0.837249
2.16752
1.31829
1.93614
9.3199
1.29446
3.01864
3.99467
3.12449
7.12708
21.0715
0.0022263
0.781463
0.011918
0.137652
0.0322244
0.0320156
0.0277246
0.252305
0.0217805
0.0078265
0.0459808
0.0266089
0.236973
0.0816677
0.00516561
0.827622
0.00719909
24.2509
1.89499
0.524811
0.00274696
1.29881
9.19592
47.897
2.29149
0.655883
0.470295
0.0309637
2.80808
0.0346019
1.43767
21.4292
0.013628
1.31626
0.00515935
0.00618885
0.000430232
1.27377
0.680324
45.111
1.29898
27.574
0.00750602
7.78612
6.98041
23.4
8.42198
24.6524
23.963
0.01577
0.176454
7.90543
16.2975
0.0443978
0.17792
0.0542218
0.556292
0.190583
0.0702092
0.0564981
0.0692409
0.0631122
0.122182
21.2972
6.2586
0.0714088
1.66476
13.9398
10.0126
1.20299
0.00198826
34.8686
34.4426
42.1916
1.28864
25.0253
35.9258
17.297
32.6605
26.1428
0.034337
11.1633
0.235847
8.40745
10.2363
5.30789
5.43395
75.3217
68.1577
2.984
1.85875
17.128
35.7732
1.50845
6.71744
58.4361
76.4717
57.8774
2.19261
20.5486
75.3196
19.5011
54.9494
18.5303
0.0609685
15.34
0.0651168
7.97601
9.5533
5.90754
4.64588
0.0128133
0.700992
0.0103253
0.816534
0.423322
0.504964
0.526019
0.59678
0.485458
1.04675
9.89881
0.204165
0.18012
0.700595
0.25352
3.04212
22.3193
27.1824
0.0185458
0.359924
14.0235
23.6761
1.09818
0.247671
24.6219
2.54389
19.8891
0.725128
8.39957
5.6108
8.84635
4.98618
2.63844
0.00602557
1.49118
0.00306167
1.09384
0.987213
0.000533998
0.597686
32.8891
0.436622
0.52779
0.474632
3.17621
0.258734
0.951263
0.173138
11.9397
0.0162491
0.0539058
0.0251288
0.0146341
0.0190642
2.37868
0.449421
17.7384
0.139179
0.565401
0.0138569
0.00400887
0.029344
0.0158192
0.372968
0.0201014
0.0191914
0.0165822
0.428526
0.0180045
0.0557665
0.0159409
0.0140351
0.404335
8.10423
0.437935
0.218707
0.483076
1.32386
0.20782
0.539777
10.66
0.0847335
22.2199
0.0196072
5.54615
5.44189
8.71903
8.57914
31.7523
0.00207415
24.9517
2.69502
13.7678
9.05273
8.4873
4.86452
29.8577
50.5165
2.21823
66.355
40.4654
28.2862
33.0472
29.6892
0.0184005
2.57873
39.1782
1.53069
0.0137368
0.0160121
3.48717
14.9101
6.7075
0.0211528
25.4343
0.0141417
5.81705
7.88132
8.33067
9.2322
33.0695
26.7907
0.0912656
3.72702
25.1589
10.9936
7.69996
0.664793
14.0103
0.0325621
5.82645
0.0449975
4.32282
4.41055
2.78643
2.66023
30.7774
47.2221
40.9814
2.41204
10.3485
56.5938
9.36762
42.7743
0.0180974
0.025129
0.0909666
0.0855524
0.0202637
0.0414199
0.0231727
0.0295001
5.40936
0.129237
0.0034942
1.18965
0.0535851
0.000998409
0.0837174
3.47752e-05
69.935
30.3179
52.1485
0.231609
19.7522
26.1342
3.23025
34.1718
0.0469128
0.0226224
0.389032
0.197839
0.0344847
0.0254313
0.0725433
0.0385661
0.0347464
0.0559239
0.0394227
0.141977
0.0989844
0.0657171
0.0770287
0.0532957
35.1238
20.8662
0.60339
1.22814
9.74522
19.1909
2.56968
1.9943
65.2296
58.616
61.9027
1.82574
45.5254
51.8588
9.23397
21.7806
0.116091
1.34726
0.0220669
0.0148914
0.0152004
0.0142066
0.0293685
0.0197804
0.0281732
0.08869
0.0310165
0.0539048
0.0211763
0.0324515
0.0440219
0.0266363
8.36255
0.028799
0.121955
0.0779778
3.21436
3.35965
0.72602
0.795605
54.3844
45.4576
33.6512
2.20006
40.0231
42.525
4.9388
3.82499
36.6665
35.625
33.2747
0.618174
22.1877
33.7981
17.8446
22.3839
4.62985
0.0174572
0.669652
0.757379
2.85323
0.0272028
7.37773
0.14079
41.2653
29.7619
1.03009
0.0191312
20.6964
17.8598
0.294345
0.818722
33.9001
31.2487
34.3188
0.627412
19.3815
34.3423
6.78848
18.4272
13.3042
1.02301
33.6938
0.0135283
7.93705
9.56882
10.1923
11.3983
2.42359
32.13
24.8008
0.779447
5.46474
12.2659
3.56025
14.2122
95.3402
5.91622
52.0135
0.109996
10.3556
14.0336
31.9819
19.3842
0.0577191
0.446434
8.33596
0.10544
0.0337925
0.415336
1.69992
1.58536
0.0439579
0.0297724
0.0504223
0.0628739
0.0503813
0.0433072
0.0536049
0.059786
0.00681626
1.97973
39.3263
0.501892
0.0176491
0.918398
0.144701
1.53665
113.082
0.178556
66.5236
1.03337
10.8763
36.7127
3.57802
16.4607
26.4857
48.7144
0.216954
5.88288
23.3659
6.08814
3.07572
1.02368
28.1686
54.1069
0.00859929
1.66788
25.2916
4.25918
0.00024235
0.00215476
19.4575
0.0321424
44.8842
8.56159
5.14922
5.50636
16.5798
22.1863
0.0031958
0.0183208
22.9789
1.15675
5.85363
4.37383
4.76052
10.8143
20.4248
40.5013
33.4173
0.0249686
18.9505
32.3956
5.97873
18.269
22.994
20.4231
0.0891648
0.212871
20.5288
12.2214
3.8688
3.07213
64.6954
47.5573
29.8806
3.76228
45.8039
47.2614
11.3513
14.3823
1.64328
0.618566
0.62501
2.46917
2.44129
1.74403
1.80292
0.801377
4.17522
0.0206082
0.148522
0.0200614
0.0201504
0.0175435
0.0939674
0.0395313
73.9107
68.9321
54.6233
2.49623
20.8348
67.792
21.7695
49.2638
44.4049
20.692
44.43
3.91299
16.292
9.24293
8.04996
6.44495
0.0203243
0.0215415
0.0211052
0.0210688
0.0207157
0.0220509
0.0429684
0.0219958
0.413373
0.634788
0.020787
0.147657
0.184173
0.231902
0.128178
0.16132
68.5397
0.393659
0.00431782
6.4807
21.042
0.474881
24.9351
0.0148094
35.3012
33.7867
40.4622
1.66732
22.0745
36.9879
8.52115
23.9944
0.258821
0.284502
0.274345
0.025479
0.124814
0.275896
0.129203
0.182899
0.0310322
0.0219212
0.0293702
0.0224977
0.0220982
0.0220777
0.0289678
0.0245785
31.6044
49.065
19.347
0.611831
28.066
44.4107
15.9837
26.6585
0.277461
0.268306
0.26852
0.0340932
0.161377
0.26479
0.159423
0.211919
43.6537
8.94396e-05
32.6445
0.250936
9.80187
8.6799
1.65888
8.82271
49.7234
52.613
61.9621
1.88145
35.5691
40.8785
11.451
13.3911
0.0946425
0.249372
0.0867394
0.58062