/*--------------------------------*- C++ -*----------------------------------*\
  =========                 |
  \\      /  F ield         | OpenFOAM: The Open Source CFD Toolbox
   \\    /   O peration     | Website:  https://openfoam.org
    \\  /    A nd           | Version:  12
     \\/     M anipulation  |
\*---------------------------------------------------------------------------*/
FoamFile
{
    format      ascii;
    class       volScalarField;
    location    "50";
    object      k;
}
// * * * * * * * * * * * * * * * * * * * * * * * * * * * * * * * * * * * * * //

dimensions      [0 2 -2 0 0 0 0];

internalField   nonuniform List<scalar> 
44296
(
8.25153
7.75051
0.562045
0.394149
5.53807
2.43437
0.149422
0.197951
1.85638
0.57922
0.510592
0.496441
0.794376
0.636124
0.532406
0.518692
14.2729
15.4162
11.6328
1.11828
12.3851
16.1199
9.2142
11.6942
2.29787
0.50912
0.485086
0.576705
0.249971
0.430163
0.561722
0.505625
4.48518
1.10177
6.96502
0.0440588
1.66818
2.04909
2.15251
2.75154
0.466403
3.50988
0.435862
0.508254
0.461279
0.556305
0.511768
0.341823
0.469758
0.53609
5.47086
0.426685
0.471215
0.724663
0.290887
0.908505
5.79674
0.644982
0.418235
0.576745
1.55391
0.699394
0.374135
0.45126
2.25093
0.459235
0.739497
0.631096
1.52298
1.05447
0.982904
0.860753
3.04188
0.690407
0.653764
0.697279
1.7821
0.921744
1.72838
0.869729
10.1044
18.0788
0.828547
0.964637
8.92838
3.68753
1.33429
1.42389
1.64914
0.408736
0.521031
0.180556
1.40268
0.643919
0.774453
0.598607
4.50414
5.28092
0.640893
0.505531
2.38762
4.63027
0.603977
0.643015
5.68302
0.511689
0.564727
0.781578
1.78324
0.664848
0.932255
0.617488
3.42387
0.475616
0.361112
0.459812
0.532229
0.405683
0.308752
0.391687
4.13831
0.503807
0.29735
0.501693
1.06036
0.606147
0.585639
0.466124
13.3093
14.4544
0.525803
1.13503
5.30295
8.88221
2.13402
2.39325
0.692298
3.27332
0.599053
0.503257
0.667336
0.957668
0.570527
0.67718
0.702896
3.58612
0.486158
0.507052
1.04247
1.30224
0.487392
0.713362
1.89015
0.524387
0.544054
0.474346
0.567919
0.547663
0.809898
0.52712
2.12704
0.473704
0.491818
0.484698
0.81077
0.463845
0.498218
0.504353
1.81587
0.534153
0.518344
0.491157
0.684024
0.544423
0.538092
0.520181
0.400819
5.22855
0.775941
0.453255
0.313844
1.20868
0.366918
0.659682
8.75587
5.86
0.47082
0.50504
7.29493
4.8735
1.05582
0.159411
0.463811
0.528661
1.56347
0.505929
0.478147
0.497291
0.489814
0.625173
0.517093
0.57411
0.541755
0.596139
0.495352
0.526962
0.533415
0.550913
1.86998
0.477513
0.545232
0.699682
1.02767
0.582018
0.766933
0.568852
4.10672
0.490434
0.157285
1.4113
1.64333
0.506059
1.73032
0.310176
13.8592
0.0104978
10.7846
0.316945
4.97035
4.68742
0.213317
3.27805
1.2692
0.536284
0.509362
0.365904
0.844217
0.567719
0.128562
0.501762
2.65081
3.13903
0.689648
0.812702
1.8049
1.08691
1.06999
0.829421
8.92225
1.36323
6.83898
0.127155
3.23678
2.55173
3.44504
3.41595
0.346541
0.747155
1.86615
0.479734
0.313135
0.714919
0.570116
0.733944
1.10762
0.445742
0.402589
0.572274
0.501557
0.472202
0.536628
0.46298
0.539339
0.536601
6.8877
0.509166
0.520293
0.47937
0.473366
0.447091
3.56447
0.490354
5.06657
0.432042
1.11936
1.47919
2.05158
1.86426
1.33652
1.45653
0.681639
0.98776
1.01045
0.984482
0.843396
0.84461
5.27721
5.29891
0.505549
0.459889
3.19998
1.98673
0.46547
0.30659
2.63812
0.508328
0.324974
0.650501
1.10691
0.467425
1.07842
0.351587
0.683065
6.85657
0.571208
0.769535
1.11893
1.7421
0.903405
1.08121
10.447
8.38484
0.51321
0.508659
2.73879
6.40454
0.524023
0.581339
0.549065
0.459707
3.054
0.530014
0.549709
0.598221
0.563881
0.743296
5.4992
0.436887
0.528428
0.413176
1.13466
0.539523
0.661361
0.422674
0.410357
0.683613
0.486557
0.53146
0.455485
0.444171
0.48143
0.472947
1.21382
0.485981
0.473612
0.576995
0.797092
0.144924
0.56896
0.504018
0.50508
0.401136
0.463675
0.497993
0.503467
0.512653
0.49195
0.473195
1.22024
0.81323
5.35382
0.713307
0.949188
0.871254
0.657371
0.0107848
4.35698
6.28273
0.55537
0.657795
2.07378
3.30571
0.930279
0.998396
4.74861
0.901135
0.349825
0.679473
1.09113
0.792115
0.865516
0.408421
7.42011
0.528266
5.14416
0.54872
2.27217
3.11994
2.15761
1.70816
5.5733
0.264963
0.606863
0.633174
1.47402
0.549022
0.711793
0.542778
16.9257
17.4104
0.194196
1.1415
8.3616
2.65179
1.07875
0.365872
3.60277
0.598836
0.565843
0.491017
1.0526
0.619045
0.463391
0.483113
0.964806
0.548026
0.392891
0.23804
0.992353
0.554207
0.636326
0.525641
1.59252
0.453914
0.530217
0.584452
0.633702
0.547261
0.641876
0.558756
20.5869
20.9791
16.9135
0.613756
15.4713
16.3092
3.9086
7.70459
0.55322
0.550258
3.14787
0.462738
0.590648
0.916223
0.566042
1.13367
1.8628
0.78752
0.76063
0.750859
1.09982
0.889127
0.985928
0.746314
6.59361
6.95747
0.615483
0.56815
3.2716
6.31972
0.920507
0.945499
5.73943
4.13543
0.572023
0.745342
4.02508
1.67879
0.716739
0.635368
29.8332
20.3557
26.6811
1.12245
24.9326
34.5161
9.19812
11.899
0.722046
5.59375
0.610042
0.595289
0.693621
1.09753
0.54883
0.585946
15.1123
16.6156
0.679344
0.894596
9.39591
11.5921
1.50419
1.05943
0.564477
0.492508
0.577846
0.520664
0.573341
0.569047
0.560045
0.580603
0.601004
0.952693
1.54014
0.732929
0.705102
0.99629
0.774256
1.41859
0.649697
7.72635
7.66325
0.587013
0.674025
3.26914
0.890546
6.16943
0.538274
0.526495
0.504583
0.481829
0.559682
0.554712
0.51186
0.507614
0.59872
0.405369
6.21665
0.53267
0.571021
0.595056
0.792175
1.2683
10.363
1.38147
11.5829
0.370754
1.92053
2.52094
2.61177
3.59169
0.435086
2.96488
0.556901
0.47197
0.42994
0.781108
0.447581
0.575607
10.464
11.1211
0.546651
1.2078
7.67277
2.73117
1.1109
0.903757
0.44486
0.428553
0.50506
0.511932
0.467729
0.534159
0.509083
0.504639
15.313
17.413
0.316059
1.08122
4.59946
6.47483
0.55252
0.260886
2.96681
0.622832
0.358416
0.67808
0.876917
0.0352128
0.73931
0.385808
2.87735
0.534316
0.575584
0.524374
1.26736
0.618113
0.884826
0.60153
26.3492
26.5293
22.1768
1.32503
17.2489
26.3919
9.38495
17.7608
4.92743
0.480155
0.739859
0.530968
0.587388
0.625555
0.502284
0.555132
2.63674
0.500821
0.567079
0.50508
0.381251
0.558954
0.490007
0.55064
6.21651
9.11032
0.580403
0.729871
4.06955
6.32096
1.21613
1.34315
8.28099
9.08101
0.652274
0.45663
3.56489
7.12976
0.569983
0.617592
9.55913
1.66575
9.8009
0.529438
4.50495
3.02062
4.32503
3.36292
6.40853
5.41103
0.587545
0.513631
2.62795
5.41691
0.783248
0.690836
6.66225
0.770108
4.85869
0.310433
2.78873
2.26206
2.82126
2.1871
7.96108
0.341522
0.545523
0.538685
2.19829
0.607175
0.399689
0.519692
0.581065
5.32345
0.56557
0.598836
0.622998
0.748556
0.54223
0.588622
0.571595
0.570347
5.12987
0.584958
0.562229
0.580287
0.684802
0.662166
5.6908
7.95256
0.615469
0.77407
3.38957
5.49641
0.762078
0.770441
8.64457
12.7512
0.51002
0.715916
9.67613
3.3114
0.799358
0.592532
12.7416
1.29632
11.5527
0.644362
2.90458
2.3022
4.00797
3.33241
1.2845
0.411947
0.54788
0.706953
0.116859
0.410529
0.694114
0.630547
0.565959
0.230737
0.49989
0.475376
0.435907
0.493241
0.482154
0.600567
3.51067
0.508004
0.620806
0.490331
0.280487
0.64551
0.500889
0.591239
5.23756
0.3045
0.839525
0.730456
1.65813
0.599365
0.83942
0.622407
9.77374
0.0773463
7.52107
0.691325
3.80794
4.1138
2.04635
2.0382
2.41262
0.662548
0.879405
0.828429
1.19101
0.894027
0.802691
0.733373
9.34263
1.0245
8.07096
0.219656
3.08192
2.53791
2.46241
1.38905
0.54588
2.87641
0.525681
0.421471
0.734274
0.776197
0.455887
0.488986
5.69096
1.39047
2.81495
0.790871
1.56067
1.61562
1.04668
1.20584
6.13333
0.414305
0.782995
0.395127
0.854737
0.119725
0.752459
0.679772
12.614
14.7954
13.4144
1.2654
11.8108
16.5333
6.39819
9.72242
4.28104
0.800376
0.554318
0.488071
1.38309
0.828023
0.56041
0.511112
0.654732
0.505233
0.516787
0.602716
0.524047
0.50615
0.480744
0.50145
11.8596
10.7852
10.237
0.879841
8.174
11.4836
3.33627
6.77969
4.69279
0.602726
0.410443
0.494604
0.69925
1.45868
0.524902
0.532861
19.564
18.193
19.7506
1.39731
6.15899
15.1408
2.69065
14.0317
0.629581
0.56744
5.77448
0.552605
0.583182
0.589626
0.754362
0.786661
0.458627
2.14395
0.800903
0.2453
0.685602
1.20294
0.700256
1.37521
0.521405
0.534885
0.542286
0.519351
0.530144
0.526453
0.586413
0.574392
2.38176
0.576105
0.676778
0.0893521
1.09258
0.594944
0.0629686
0.676821
7.13137
0.55952
0.472101
0.256778
0.947879
0.455039
0.26999
0.42527
0.449878
0.479424
0.497225
0.479247
0.462142
0.440224
0.486188
0.472624
0.56801
0.541608
0.517906
0.520612
0.625789
0.537806
0.650842
0.544994
0.532368
0.238945
3.75896
0.615699
0.599444
0.140918
0.769437
1.50548
0.458013
5.29736
0.478977
0.622001
0.586698
0.963248
0.497456
0.477696
13.0192
13.2034
0.528433
0.715902
4.23573
3.60144
0.786894
0.676702
0.58476
0.297086
2.07386
0.604725
0.711259
0.311612
0.934679
0.973823
8.56692
11.5056
0.306509
1.32947
3.88032
5.16257
1.90068
2.02357
0.577664
0.518047
0.5438
0.595909
0.626332
0.523936
0.556867
0.5232
12.2394
1.30898
13.1637
0.717519
5.12816
3.00437
5.48431
3.73764
2.53723
0.498548
0.563042
0.464992
0.388452
0.463227
0.460099
0.537491
8.78434
1.00815
9.55708
0.458269
2.76862
3.24211
4.97333
3.97807
14.9996
16.995
17.308
0.65205
9.30886
18.0264
3.20672
10.8187
7.52104
0.222722
0.570155
0.782221
1.41072
0.512775
0.893752
0.549235
9.34837
7.74079
1.19878
0.41542
4.66818
5.04359
0.76004
1.78415
0.36586
0.585135
5.37491
0.960226
0.304145
0.717785
1.0272
0.990918
0.605615
0.771957
4.9671
0.334027
0.713871
1.14835
0.933014
1.89594
10.8338
0.441035
2.67029
0.720129
2.94185
2.48789
2.12477
1.64118
0.606644
8.60429
7.43892
0.698367
0.90488
8.20308
0.830223
3.69809
0.67013
8.52698
7.29995
0.547012
0.771982
8.10409
0.694849
4.26715
0.513695
0.498813
0.519914
0.516694
0.514847
0.518921
0.518678
0.516617
0.455641
0.534327
0.466277
0.495329
0.508226
0.498887
0.508863
0.496821
17.2522
15.1433
15.9836
0.838251
13.1149
19.4797
5.97438
8.13473
1.05294
0.414354
0.411405
0.546578
0.55154
0.4698
0.577081
0.40588
6.24537
0.938395
0.54708
0.680156
2.39059
1.12041
0.589032
0.440504
0.659472
6.72245
8.81481
0.613719
0.813602
2.95852
0.824581
5.23875
0.517749
0.592162
0.476351
0.602076
0.537411
0.55748
0.552054
0.595618
0.522849
0.517568
0.535205
0.516153
0.546822
0.531229
0.543978
0.534733
0.566678
0.526881
6.38125
0.654753
0.527121
0.538917
0.728334
1.14115
2.7676
0.442067
0.574294
0.504876
0.0663691
0.453187
0.727371
0.574142
10.1467
9.4484
8.45424
0.787536
5.80535
9.05451
2.95485
6.03731
0.533885
0.45443
1.89824
0.498554
0.498654
0.570485
0.490565
0.680277
0.62074
0.533341
6.5587
0.37356
0.682671
0.425887
0.8935
0.113683
12.0116
12.3628
0.726203
0.593911
4.89042
3.5886
0.770607
0.794085
2.22119
0.572437
0.520327
0.442477
1.14125
0.677294
1.40535
0.671059
4.84579
0.735877
9.45241
0.560182
1.20451
1.89658
1.89648
2.55011
11.2824
9.01602
0.511766
0.704084
5.51031
1.93421
0.669432
0.61184
6.89295
6.18948
0.4643
0.460852
4.25558
2.50165
0.641495
0.668203
7.35218
8.5801
0.542637
0.701286
3.05786
5.08347
0.601727
0.624066
3.44508
0.491018
0.605864
0.529964
1.05347
0.794025
0.559721
0.585935
8.07436
0.690331
7.51512
0.159281
2.93438
1.59417
2.56925
1.11338
0.590116
0.579191
6.21795
0.515559
0.544193
0.594126
0.593024
0.840183
1.17992
0.620786
0.926358
0.821725
0.875544
0.734544
0.956478
0.809024
0.455967
0.518478
5.24709
0.508562
0.47835
0.552745
0.548395
0.874065
0.19026
0.487575
2.04927
0.658336
0.442929
0.648559
1.22228
1.22414
9.43676
0.259582
7.5158
1.28934
3.70813
2.87044
3.03515
1.92152
9.62638
9.03911
0.598035
0.701292
6.137
5.50937
1.11994
1.08022
5.07204
0.638004
0.568655
0.683869
1.46471
0.637259
0.773762
0.510701
15.9712
16.3222
9.47544
0.58199
6.5345
11.0496
3.35002
7.21646
13.0582
14.9277
17.6406
0.93706
7.75471
16.2913
6.69385
12.3922
3.44475
0.676334
0.530682
0.512293
0.320027
0.603085
0.466542
0.587254
0.485773
0.472103
0.524406
0.505208
0.500334
0.495649
0.504134
0.501303
10.5091
7.00477
0.622053
0.500758
7.4043
4.34482
0.661496
0.66548
6.8584
0.585823
0.443165
0.232716
0.715301
0.527257
0.330982
0.425613
11.038
0.798966
9.04935
0.00454029
3.75031
2.38835
4.54541
2.10685
10.9751
10.4704
0.586869
1.0072
5.59232
7.25678
1.56713
1.05063
8.89063
0.318623
8.6205
0.64131
3.30438
3.95125
1.28726
0.961848
14.6932
18.3625
15.6758
0.999849
9.05542
15.4887
5.12771
11.9245
8.50642
9.41977
0.607897
0.724348
3.34374
6.38499
0.46115
0.906913
0.52805
0.502141
0.526155
0.484307
0.513838
0.510748
0.519592
0.512176
5.53772
0.625624
7.03777
0.525954
1.65268
2.05234
3.41408
2.8629
8.57264
0.239889
8.85779
0.585292
3.19129
3.31409
1.0508
1.20832
4.46789
0.231235
0.406935
0.626669
0.800533
0.0125585
0.547557
0.548882
0.529901
3.10271
0.57045
0.13563
0.488959
0.733583
0.345334
1.09964
0.516595
0.506269
0.49642
0.495017
0.514714
0.508244
0.500328
0.498543
5.46765
0.544879
0.647772
0.544361
0.771054
0.726738
1.50758
0.87306
20.124
1.1924
16.6374
1.43743
3.20697
2.81622
8.55327
4.40021
44.4045
41.6298
28.932
2.71324
30.1041
35.1034
13.9393
24.9179
11.0901
14.1647
12.1368
0.574253
7.93543
12.9048
3.44041
7.76761
0.571798
4.55091
5.53422
0.614649
0.611173
5.25132
0.558668
2.25588
0.399727
0.442672
4.64685
0.745497
0.570376
0.783304
0.926226
2.00688
1.17846
1.94234
9.21353
4.88365
1.47937
1.60874
3.64296
2.16011
5.29845
0.849814
0.469093
0.560996
1.45507
0.911952
0.857272
0.652428
0.526459
1.87879
0.572412
0.521477
0.557343
0.987762
0.558494
0.671617
0.543518
0.522732
0.54881
0.520177
0.552578
0.54428
0.543862
0.538459
0.546336
0.525478
0.514179
0.400079
0.554324
0.523581
0.553837
0.514435
20.7752
16.2681
13.3638
0.945606
15.4312
21.382
6.83009
8.05147
14.0372
16.5161
10.1254
0.655746
7.68524
9.81026
2.84547
6.43051
15.4936
12.2288
9.65231
0.925279
9.47885
11.3857
4.96698
8.55066
0.527487
0.528713
0.53004
0.508152
0.544692
0.533561
0.546149
0.537276
5.3737
0.458229
0.497015
0.755327
0.431531
0.450684
0.691162
0.5594
8.56535
0.451332
7.92343
0.65506
3.43159
0.915885
5.05373
3.72076
8.1752
0.14959
8.85896
0.879819
2.66792
2.66662
2.3051
1.32668
0.57313
0.479464
5.07839
0.836791
0.509426
0.426639
0.764185
0.847365
8.06746
0.549065
3.607
0.609261
3.772
1.7393
1.02301
0.937253
0.501145
0.607907
0.555934
0.448646
0.503865
0.533361
0.500766
0.556937
2.12561
17.3661
16.9534
0.702817
0.69675
12.6549
0.57388
3.32691
8.33512
8.84353
0.440135
0.611919
2.67455
6.54063
1.04059
0.777407
0.571273
0.511958
0.558065
0.66227
0.546309
0.531372
0.600636
0.544242
13.9255
16.2947
14.8244
0.565837
4.91838
12.2353
2.3307
10.0751
0.499617
5.21044
2.647
0.735814
0.757984
3.1826
0.76755
1.97477
1.33772
0.496008
0.313813
0.771253
0.829522
0.588608
0.749925
0.305053
0.610201
0.49809
0.469617
0.397894
0.514157
0.500494
0.508168
0.494294
14.7931
25.3089
0.757437
0.868325
6.39168
6.78513
0.625449
0.884629
13.436
0.265362
11.2299
1.22427
5.89059
3.59276
2.60368
1.91871
0.588509
0.896638
0.495828
0.524108
0.577517
0.619792
0.547009
0.550492
6.49257
3.87123
0.788316
0.627964
5.16568
2.66062
1.00985
0.861957
0.333024
0.506137
0.897409
0.0925706
0.282571
0.712289
0.831118
1.1988
0.667959
12.5666
1.31279
0.880383
0.594644
2.26773
0.788677
1.00715
5.27301
0.648945
10.5409
0.484706
1.95511
2.72834
3.47745
3.09223
0.525102
0.530957
0.511017
0.508955
0.528745
0.524366
0.522065
0.525028
0.670716
0.901608
8.0653
0.200432
0.547503
0.602335
0.654595
0.817636
0.599433
0.516037
0.488606
0.493333
0.501738
0.527507
0.500287
0.496371
4.98598
0.409411
6.42445
0.51697
1.51732
2.69472
1.99422
2.32824
1.66974
0.502712
0.580034
0.181637
0.608299
0.552235
0.0088609
0.636522
2.31559
0.582461
0.321714
0.739385
1.1035
0.548561
1.07396
0.415917
0.791137
0.508543
3.28098
0.509573
0.900215
1.27297
0.939288
1.71139
0.505797
0.495468
0.504189
0.552829
0.512334
0.504694
0.524142
0.505827
4.63062
0.654376
0.331476
0.724463
0.644517
0.567765
0.707902
0.309137
0.459088
0.569033
4.80173
0.344359
0.468748
0.428971
0.20361
1.46462
11.445
1.35407
11.4101
0.255666
1.83201
3.14987
2.63349
4.15696
7.26267
0.464742
4.61083
0.712394
2.69264
2.14637
1.49408
0.952375
3.20618
0.547484
0.403251
0.452098
1.45098
0.559491
0.830873
0.464375
0.921109
1.76254
0.683137
0.522193
1.21209
1.34499
0.735791
1.02932
0.501904
0.415058
0.51684
0.54833
0.508911
0.518699
0.51802
0.534657
0.559606
0.527897
0.453982
0.569592
0.54266
0.526134
0.572868
0.548959
14.4453
1.7274
12.2113
0.702953
3.67783
3.50597
5.20546
5.5715
0.328337
0.396304
8.91472
1.12065
0.280142
0.632784
1.41489
5.4801
17.8633
26.2838
17.4939
1.1759
13.605
20.0091
2.18017
15.7439
0.538425
0.608952
3.83674
0.560913
0.595221
0.661487
0.720425
0.982451
7.87175
0.0327925
12.4545
0.693027
3.11089
2.78083
1.68053
3.04199
4.15148
0.36145
0.62418
0.847396
1.92749
0.7567
0.319482
0.666349
7.71538
8.95294
0.564344
0.759445
6.95085
3.27568
0.685036
0.630818
0.516249
0.520266
0.518743
0.493098
0.562588
0.522771
0.529411
0.521424
0.520306
0.52139
0.520486
0.552839
0.516902
0.513673
0.518188
0.519049
2.821
0.728424
0.699193
0.503538
0.0168366
0.638894
1.16619
0.633858
9.60625
9.09135
0.542266
0.608391
6.62977
5.27377
1.26604
1.16454
0.191041
7.79212
1.1141
0.810806
0.765533
2.27442
0.821315
1.58201
10.829
0.928756
0.785547
0.779282
1.86064
1.09698
1.57438
1.04627
0.490566
0.483535
0.534457
0.50835
0.498972
0.491357
0.511586
0.513103
13.364
10.8802
9.94534
0.681099
8.64283
12.7748
3.44401
4.06342
0.362807
0.680067
3.56871
0.753582
0.292297
0.709964
0.74207
1.15258
6.83151
0.459594
0.461021
0.979647
0.342633
0.422326
1.00254
0.467731
0.513235
0.518743
0.517472
0.523363
0.523406
0.514676
0.527756
0.517094
0.472467
0.485142
0.496901
0.525832
0.490043
0.492533
0.496447
0.49576
1.34986
1.48977
1.04203
0.960373
1.39746
1.33162
1.01777
1.12798
2.46178
0.595317
6.10447
0.454228
1.20404
1.61994
1.35728
1.87445
0.52343
0.507334
0.50888
0.529635
0.531396
0.526173
0.531652
0.518513
0.954856
1.19885
0.823172
0.716665
0.830066
0.87049
0.739909
0.854787
0.555778
0.498519
0.524641
0.548748
0.515956
0.507705
0.511294
0.510944
0.507694
0.496355
0.515722
0.493962
0.510322
0.511169
0.504241
0.508089
12.4807
11.7447
9.90023
0.652237
6.87898
10.8325
2.76364
6.75725
0.426124
0.491054
3.51795
0.59799
0.520582
0.55789
0.605878
0.657744
1.37175
0.521967
0.512448
0.469418
0.542127
0.506682
0.465836
0.496049
0.58498
0.532303
2.82746
0.554952
0.547788
0.577725
0.394768
0.261694
2.69882
0.47347
0.524281
0.507662
0.756532
0.466943
0.608775
0.523034
10.5585
1.64059
1.8157
1.21111
0.261841
1.29659
0.948014
1.63996
17.0457
1.08604
10.9113
0.18631
5.24766
3.7515
4.6258
2.3094
0.585169
0.492337
3.6616
0.690081
0.458104
0.537341
0.743723
0.818891
0.499552
0.501906
0.513053
0.501437
0.510894
0.513048
0.513123
0.510801
0.624767
0.708839
0.550393
0.696874
0.658071
0.640631
0.614415
0.580809
0.571465
0.587947
0.480941
0.662298
0.83116
0.271818
0.6787
0.472009
1.33824
2.14601
2.02075
1.23359
1.42004
1.51917
1.23369
1.64386
0.487268
0.433179
0.532389
0.536944
0.489858
0.476717
0.506681
0.519109
1.83619
1.09603
0.792911
1.03364
1.45108
0.873258
1.00993
0.810018
7.46192
0.631198
12.1673
0.47668
2.96809
3.97762
4.20401
3.85403
11.3815
1.04221
11.9168
0.0709641
3.36568
2.55342
4.52272
2.8146
0.48002
0.495325
0.610447
0.341699
0.499491
0.496619
0.0691415
0.541046
1.50517
4.93469
6.68374
0.795437
1.67259
4.28284
1.17411
1.75379
0.512028
0.516081
0.511557
0.590284
0.509193
0.506009
0.516725
0.50171
1.93433
2.0692
2.65927
1.36477
1.56962
1.62954
1.58486
1.75719
1.2609
0.454723
0.35818
0.486662
1.59801
0.645814
0.869363
0.441018
10.8579
0.430295
0.660238
0.441862
1.61161
0.249565
0.726081
0.65065
3.26752
0.508544
0.235435
0.713583
1.21928
0.526144
1.03357
0.261476
4.53907
0.321673
0.47983
0.700164
2.01895
0.466471
1.10666
0.416889
0.564756
0.471897
2.48067
0.387146
0.581793
0.614906
0.70828
0.887577
0.526646
0.583118
0.526028
0.530538
0.522561
0.524037
0.524213
0.524858
9.17048
0.469691
8.4385
0.361383
3.14298
1.75315
3.01592
1.33584
5.56321
1.57814
0.812711
0.802147
3.87373
2.37473
0.991446
0.038379
2.04253
10.9896
2.67572
1.05779
1.83728
2.84296
1.47484
2.11454
7.60007
0.682668
0.434109
0.607622
0.421799
0.640472
0.92703
0.683878
0.497472
0.512205
1.34171
0.174487
0.669602
0.771322
0.931148
1.77508
4.02728
0.535649
0.535762
0.523109
1.35984
0.606619
0.928396
0.596918
2.14663
0.96194
2.38555
1.05601
1.35016
1.31824
1.60604
1.71797
11.3346
2.37181
7.72514
0.592784
4.96537
3.41293
5.1877
3.80982
8.81664
11.6741
0.462042
0.823527
2.48138
5.88463
0.589505
0.615441
9.35538
6.68619
0.493085
0.527417
2.10881
5.07613
0.663694
0.740327
7.79053
0.421768
4.62504
0.634794
2.31179
1.98624
2.61118
1.42636
1.83264
0.588367
0.543318
0.939603
1.68891
0.700385
1.01539
0.583091
1.90905
0.685335
0.442412
0.714
1.41436
0.790507
0.772747
0.434185
7.17127
7.34065
0.555414
0.90263
2.87823
5.19479
0.968483
1.04261
2.56076
0.511286
0.405031
1.24632
1.09315
0.499309
1.26853
0.352288
4.73809
0.373672
9.28214
0.422275
1.58251
1.56491
0.864271
1.71345
0.0958809
0.544365
0.488299
0.600336
1.38718
0.0527589
0.189538
0.419709
8.17195
1.17387
11.2187
0.525958
2.24828
2.39064
3.54195
3.69735
0.182062
8.92812
0.582275
0.976548
1.09421
2.07203
0.947385
1.4651
11.4603
11.1576
11.4228
0.884123
7.14087
12.9038
1.97288
6.34969
2.28555
0.52899
0.444452
0.811857
0.84835
0.573804
0.8235
0.423237
3.42583
0.516818
0.558853
0.517952
0.961646
0.577729
0.659504
0.573196
5.49977
0.471117
0.741749
0.303749
1.56505
0.548251
0.218133
0.606071
0.523802
0.534755
0.571755
0.506232
0.540959
0.539352
0.53563
0.54621
0.530402
0.876478
5.63981
0.0935109
0.463176
0.799675
0.0965949
2.47149
0.483349
0.434187
1.17736
0.437516
0.487354
0.413549
0.473261
0.566695
1.34122
0.444125
0.444622
0.495051
0.597432
0.357819
0.512519
0.502157
5.78436
4.82996
0.414158
0.553217
3.54639
2.09518
0.668839
0.472761
0.598063
0.510804
0.503137
0.53915
0.533548
0.51607
0.522243
0.510734
13.2711
8.172
0.50699
0.993162
2.89366
1.04012
0.711536
0.669847
0.563555
0.450703
2.84881
0.598611
0.668535
0.624402
0.960988
1.14532
3.07665
1.05778
9.90124
0.888702
1.85445
1.10279
1.1077
0.431641
11.4587
6.70512
0.709292
0.506984
4.04999
2.18057
1.65139
1.12154
3.26216
1.13911
1.64687
0.943929
0.767894
1.0553
1.06248
1.36922
18.0223
25.9006
20.8822
1.57665
17.4486
22.8228
12.3024
17.2232
7.99594
6.40333
0.707106
0.611169
5.91842
3.47554
0.977562
0.937593
2.65336
0.570047
0.432855
0.666897
1.24276
0.832935
0.915096
0.500294
0.458652
0.495053
0.560916
0.530357
0.493514
0.506822
0.475306
0.511716
0.412618
0.693484
6.80095
1.00793
0.325144
1.2444
1.03795
1.51668
22.4927
21.6169
16.7807
0.99751
16.3683
18.4747
1.94601
7.35187
0.548384
0.640322
0.516294
0.458008
0.611646
0.571292
0.528541
0.528729
0.855735
3.6657
0.796609
0.328195
1.12825
2.3151
0.727832
1.53655
7.36472
12.0979
0.541733
1.50943
4.49639
7.38517
1.41299
1.29492
2.9985
0.520499
0.478198
0.685887
0.451932
0.466851
0.508659
0.45181
16.9263
15.3207
14.867
0.648978
9.26765
18.1809
3.55029
12.7946
1.68274
1.39746
3.26176
0.903275
1.41724
2.07291
1.11898
1.87334
14.2254
17.2658
15.0773
1.42347
8.71602
14.857
2.51588
8.63547
17.6936
19.2084
17.5651
0.704383
12.5416
15.4904
1.4948
5.97119
18.5404
18.5113
19.434
1.69125
11.9653
18.3009
5.64056
11.7604
14.2907
0.403421
9.88521
2.17798
5.8214
2.02357
4.56806
2.06905
0.573147
0.5754
0.479847
0.51132
0.572943
0.515491
0.497175
0.493396
15.3647
10.8386
0.877962
0.69455
4.60673
10.4418
1.4407
1.57944
14.4681
1.13933
18.2316
0.207524
3.71478
2.53822
4.81009
2.5548
24.7376
22.8119
17.64
0.970588
18.2356
17.7555
3.9087
8.21305
11.3132
0.211424
10.4601
0.457203
3.8086
3.70323
1.62362
1.26266
13.5124
14.3842
0.602176
0.618975
7.42934
5.13184
1.13494
1.02464
0.507113
0.508051
0.555672
0.527238
0.51098
0.511338
0.523804
0.528424
13.4615
16.9223
13.5292
0.622272
5.65273
12.5046
2.0505
9.17913
1.21156
0.920091
1.80809
0.920767
0.613769
0.985484
1.38876
1.30895
8.74014
0.532656
0.697123
0.284627
2.40527
0.00881002
0.536639
0.579819
7.85016
0.586694
5.39507
0.530608
2.27845
3.07544
2.47396
1.81596
5.82813
7.65622
0.578894
0.773425
4.27129
2.01627
0.984585
0.896286
4.90668
8.14157
0.732768
0.672331
3.3279
3.30632
1.00279
1.00556
10.2732
0.008966
8.35886
0.615113
3.76918
4.0079
1.52854
2.74595
0.510948
0.519184
0.505082
0.503146
0.523281
0.519006
0.531829
0.516357
1.3225
0.52533
0.374844
0.656944
0.744193
0.456206
0.731369
0.247665
0.483696
0.499499
4.87
0.714636
0.509463
0.536623
0.710577
1.28825
2.41594
1.52122
3.26089
1.11122
1.75991
2.29712
1.70003
2.44603
6.58864
0.157279
0.676978
0.363899
1.23671
0.598372
0.59643
0.555024
1.67433
0.491941
0.294892
0.714771
0.543741
0.514286
0.952586
0.239574
0.599868
0.282825
6.27682
0.567996
0.54399
0.174705
0.79538
2.50407
8.48352
1.54951
0.580189
0.796039
0.58655
1.38723
0.620053
0.823539
5.16308
0.38913
0.705889
0.239429
0.262231
0.0691401
0.579004
0.593124
12.559
0.788137
9.54441
0.288791
2.39691
2.37737
6.33329
3.11399
8.67396
7.95527
0.418596
0.548344
3.26595
5.00675
0.554832
0.603357
0.520837
0.714392
0.611475
0.49853
0.531756
0.576365
0.534107
0.602871
5.38431
4.78757
0.510457
1.08626
4.0763
2.01939
1.09917
0.148633
14.3736
12.7426
15.5932
0.966887
10.0853
13.9006
7.3893
11.2769
6.81277
0.617675
3.95169
0.664879
2.05663
2.80481
1.7147
0.899591
17.9658
17.3912
1.45432
1.24534
7.04653
9.82292
1.39933
2.75119
20.9504
26.0199
19.6354
1.18801
9.78165
24.2444
7.85162
17.5703
11.558
0.664324
8.13676
0.8506
4.52975
4.48525
4.05765
2.44898
0.377319
2.79084
0.338712
0.587501
0.534505
0.664586
0.547568
0.679444
0.620013
0.805894
5.1263
0.493931
0.516862
0.721406
0.516071
1.71062
8.85768
10.536
0.453944
0.592476
4.61474
8.00404
0.868587
0.676106
7.31535
1.07718
8.48951
0.466982
2.68937
1.92351
2.86989
1.89714
1.98402
0.258749
0.692656
0.184441
0.4278
0.421109
0.077028
0.455459
9.61518
0.610499
0.683035
0.703233
1.6854
0.649586
0.833586
0.567172
6.37393
0.424907
0.53618
0.528403
0.403238
0.460243
0.923423
0.629266
7.57129
0.570772
0.672256
0.392384
0.211052
0.571003
0.419247
0.602103
0.472598
0.461777
0.42924
0.734137
0.44727
0.486645
0.420857
0.394899
0.682769
2.66998
0.652011
0.536079
0.588982
0.942131
0.523999
0.64994
5.5833
0.572686
9.55384
0.466752
1.9509
2.29001
3.16295
3.01091
12.6044
0.151809
10.0247
1.27233
4.85969
3.49174
2.78458
2.22875
12.8445
14.4771
1.02992
19.2984
16.0481
8.63736
12.629
8.91123
0.452161
0.767212
9.16936
0.719459
0.39068
0.421797
1.14106
3.91242
4.11174
0.4848
8.89348
0.396396
1.8985
2.83228
3.17858
3.12753
13.3511
11.5595
0.484314
1.26844
8.35101
5.20733
2.33283
1.2744
5.43215
0.488032
3.435
0.494669
1.66254
1.78174
1.32773
0.936865
13.3548
15.581
15.8941
1.29207
4.92599
19.8643
4.85819
14.1888
0.448422
0.48895
0.505734
0.517327
0.474502
0.484458
0.491579
0.48902
3.56743
0.622683
0.197039
0.749915
0.771615
0.105325
0.964465
0.0196568
15.3703
13.3588
13.5892
0.565526
4.78135
7.9746
2.01386
8.78203
0.502996
0.501359
0.553935
0.551532
0.498069
0.496514
0.506294
0.49565
0.621347
0.527765
0.515904
0.507269
0.575681
0.540399
0.521806
0.518756
12.9471
10.7443
0.570466
0.944197
3.98947
7.34181
1.39646
1.43554
23.0391
20.8793
22.0231
0.878198
16.1034
18.8025
4.36453
8.90624
0.511738
0.792263
0.495164
0.406767
0.410966
0.397304
0.464731
0.468809
0.490964
0.56114
0.495934
0.526831
0.485069
0.521309
0.50376
0.505771
3.32443
0.565676
0.503123
0.548274
1.35849
1.40378
0.712602
0.6751
17.8656
18.0399
14.8895
0.934472
12.5563
15.1524
1.27158
3.43491
15.3633
15.1508
13.4273
0.6625
9.50944
14.8319
7.06182
8.54008
3.12652
0.440419
0.65335
0.549851
1.07789
0.549776
2.3977
0.585066
12.1396
10.7197
0.699011
0.461052
6.2429
5.56514
0.783787
0.766891
15.9751
14.9914
15.4228
0.732676
8.83242
15.7673
2.17629
8.35157
6.10076
0.656941
11.729
0.387704
2.23743
3.57553
3.25689
3.68928
1.49081
12.3672
11.3196
0.590907
2.71185
6.53112
1.98601
5.9636
22.9361
1.49011
15.5234
1.10552
3.14359
3.7533
6.87402
5.3362
0.527891
0.631427
4.12178
0.509323
0.497563
0.617757
0.67261
0.814997
0.4957
0.504105
0.511064
0.515835
0.499687
0.501773
0.504792
0.508137
0.275202
0.829424
8.93905
0.917618
0.442834
0.637463
1.26799
1.51242
25.6941
1.40853
16.1427
1.01736
2.86414
7.18155
1.20124
3.88788
8.21607
13.0975
0.523528
1.23558
6.73993
2.31284
1.00269
0.591164
9.99377
16.5713
0.309108
0.876665
8.19639
2.25227
0.051892
0.154731
3.22769
0.52916
9.75663
1.48763
1.4944
1.52582
2.87063
3.77166
0.188438
0.451181
7.18516
0.829316
1.46805
1.62818
1.87892
2.59634
12.2815
17.3335
15.0681
0.526715
8.83141
15.1437
3.20737
8.62528
10.0516
7.95747
0.55128
0.641075
7.3758
4.36546
1.56484
1.28701
18.3003
17.7824
11.5937
0.945339
12.7576
15.6598
2.18778
5.73399
2.08552
2.62163
0.818164
1.16321
1.54648
1.5165
1.227
1.0749
2.75144
0.478519
0.526716
0.472128
0.473174
0.441507
1.0218
0.66275
22.4673
22.6317
18.745
1.07637
9.88406
22.2827
7.47599
15.7443
8.51102
5.9316
11.9696
1.24189
3.31523
2.37165
1.83392
2.50995
0.475211
0.489234
0.484254
0.483836
0.479765
0.494985
0.492128
0.494366
0.634214
0.603643
0.48059
0.552761
0.551086
0.565495
0.527832
0.537854
14.5302
0.703454
0.219034
1.9668
4.13338
0.697427
4.44351
0.405646
15.9757
15.4389
13.7404
0.673695
9.05556
15.641
1.92044
7.48665
0.504773
0.537633
0.524759
0.504497
0.546083
0.526736
0.560097
0.526261
0.500124
0.493527
0.498679
0.499975
0.495516
0.495286
0.500582
0.498301
15.3952
11.8849
7.98839
0.54927
8.84277
13.6022
4.18194
8.36516
0.526778
0.515126
0.5154
0.494147
0.51686
0.510942
0.511712
0.511162
14.7933
0.0315242
12.9356
0.757633
3.64037
3.60001
1.78406
3.64315
20.4146
20.2285
21.6763
1.16551
14.1434
17.3315
5.50819
8.75602
0.496455
0.504483
0.530388
0.655343
0.456651
0.495659
0.463834
0.482839
8.72675
0.622632
0.716032
1.11817
1.11552
0.751549
1.24979
0.723032
4.50526
0.523783
0.677896
0.477899
1.08224
0.683538
0.845317
0.625792
12.1457
16.9389
16.0773
1.28413
8.64286
14.2466
3.13831
9.40135
11.9659
16.5844
18.9426
1.28687
11.8196
20.3677
9.59749
15.8941
6.14336
6.62835
0.420572
0.980031
2.20972
4.42526
0.92819
1.06324
2.85917
0.523535
0.424741
0.420485
0.621004
0.549374
1.0162
0.568508
5.06343
0.721309
0.480627
0.249718
0.932033
0.559575
0.326229
0.406176
0.3518
0.498436
4.27157
1.12331
0.424857
0.654263
1.14109
1.44488
0.504882
0.510427
0.536064
0.490105
0.53057
0.494841
0.533363
0.529851
1.15555
1.64506
0.705489
0.829244
0.951944
1.16658
0.809683
0.844558
0.371243
6.21836
0.432488
0.923387
0.434098
1.32691
0.662568
0.361012
5.47178
7.96742
0.508651
0.553922
5.54136
2.50791
0.587727
0.50101
7.49721
0.364456
9.91235
0.943248
1.7829
3.97538
1.9707
3.41941
1.76096
3.62753
7.25724