/*--------------------------------*- C++ -*----------------------------------*\
  =========                 |
  \\      /  F ield         | OpenFOAM: The Open Source CFD Toolbox
   \\    /   O peration     | Website:  https://openfoam.org
    \\  /    A nd           | Version:  12
     \\/     M anipulation  |
\*---------------------------------------------------------------------------*/
FoamFile
{
    format      ascii;
    class       volScalarField;
    location    "50";
    object      p;
}
// * * * * * * * * * * * * * * * * * * * * * * * * * * * * * * * * * * * * * //

dimensions      [0 2 -2 0 0 0 0];

internalField   nonuniform List<scalar> 
44296
(
-2.70159
-1.2652
1.30067
1.9818
-1.45918
-0.334011
1.21901
1.41586
4.21361
2.92047
2.47244
2.71264
3.5741
3.13358
3.04939
2.60016
0.0788837
2.72279
0.74927
1.55739
-0.29018
0.76486
-0.37723
-0.301418
-0.23907
2.79432
2.30228
0.830132
-0.0436592
1.31117
0.126302
1.90573
1.57623
0.578175
0.790964
2.8653
1.44719
0.388701
1.6953
0.900895
1.242
2.2827
1.35165
1.0795
1.31049
1.3296
1.04395
1.67316
1.25264
1.07415
-0.215312
1.90714
1.45376
0.956736
1.68564
0.88515
-0.838627
0.386315
0.855022
0.285315
-0.612436
0.112574
-0.295944
0.524648
-0.00200825
0.236251
-0.127062
0.313907
0.0171571
-0.0199373
0.083514
-0.0174747
8.68881
4.50894
5.87798
4.50813
6.27291
5.481
6.19763
5.4465
7.12404
7.57919
4.88897
4.54569
5.33886
6.31571
5.26646
5.48919
5.56028
5.60221
5.12489
5.99266
6.17
5.6894
5.67872
5.58427
6.96139
6.31413
5.27853
4.46851
7.08741
6.88751
4.87494
5.77841
-0.134619
1.82309
1.4751
1.1918
0.559537
1.02464
0.965011
1.13331
5.65971
2.80811
3.46537
2.09894
4.10078
3.86098
3.00567
2.77192
5.92936
4.88842
5.03603
5.02407
5.64406
6.00528
5.34557
5.47548
0.0138875
1.10494
1.72631
1.2163
1.43399
0.66797
1.11464
0.651285
-0.209813
0.297741
1.10788
0.3282
0.126147
-0.201739
0.265479
0.108438
-0.357118
-0.133939
0.0621042
0.469508
-0.0835109
-0.181924
0.0573431
0.088651
0.426137
1.44462
1.61264
0.614665
0.639563
1.02114
0.741568
1.25286
5.44022
3.9178
3.06701
2.20744
3.92205
3.71977
3.12451
2.60012
6.13028
5.53716
4.84313
4.11688
5.91106
6.10936
4.57823
4.64945
2.58252
3.95807
3.43006
1.68872
2.93705
4.67116
2.00426
3.67815
6.94328
6.29434
5.74325
6.27242
6.21229
6.1418
6.54362
6.58621
0.894695
1.15444
1.00477
0.718012
0.84177
1.13114
1.00197
1.10639
2.90806
5.14546
4.14891
3.94971
3.48964
4.53438
3.94304
4.34257
4.14555
2.5684
2.5033
3.04602
3.50094
3.06975
3.11737
2.61935
6.25439
5.03581
4.7821
5.40351
4.99695
5.20929
4.87773
4.35498
7.28434
6.02004
5.25996
6.25452
6.20036
6.17446
6.43537
5.70278
7.16365
5.48452
5.58774
5.53173
6.34874
5.87246
5.92259
5.3636
-0.289833
-2.27187
2.64921
2.18852
-1.42729
-1.81076
2.52893
2.58316
6.88939
6.29351
6.49301
5.02402
5.59547
6.62462
5.47724
5.95582
3.06553
3.42024
4.58842
2.05155
2.61877
3.78753
3.08063
3.82564
-0.0228551
0.799184
0.639061
0.254665
-0.247631
0.22351
-0.128988
0.565289
1.54565
1.50807
1.647
1.11142
1.4391
1.88291
1.64394
1.78285
2.28043
1.53955
2.00224
1.57937
2.00026
2.15766
1.65602
1.55608
-8.34369
-5.76363
-0.638315
-2.47092
-5.17346
-5.02278
-0.437874
-1.16835
6.85558
7.12106
5.27832
5.01175
7.27351
7.60343
5.77491
4.94035
6.64505
5.44342
5.83924
5.5839
5.99348
5.7944
5.5195
5.48202
4.43056
1.4111
3.15164
2.41969
1.51343
1.86924
2.53776
3.78453
4.94762
5.03145
3.55584
3.50429
5.87624
4.99051
4.05113
4.1534
-0.31974
0.0902861
0.0139729
-0.0139299
-0.250911
-0.221634
-0.087317
-0.0830424
5.62381
3.42244
2.84783
3.20744
4.74246
4.02274
4.10405
3.33861
4.10529
4.82643
4.31715
3.1579
3.60779
4.13027
3.49686
4.06759
5.2531
3.43959
2.3065
2.02629
3.52553
3.47559
1.07524
0.853036
4.35857
5.1372
4.27545
3.69618
4.03733
4.75426
3.93784
4.57827
1.9411
5.99342
4.71511
4.00325
5.16319
4.55304
4.56553
5.09941
7.59002
7.62855
5.51191
5.97038
6.8859
7.03407
6.29222
6.47438
1.37171
2.07428
2.55947
1.7026
1.24884
1.99957
1.54291
2.29319
6.25731
4.40672
5.14299
4.18757
4.28325
4.54244
4.69114
5.05584
1.34672
2.87321
2.59314
1.67746
1.34298
2.40213
1.44859
2.6884
0.400313
-0.351024
0.611794
-0.190273
-0.390602
-0.902454
-0.595728
-0.66829
7.21196
5.26992
5.05855
3.92252
5.79257
5.5013
5.27295
4.82291
1.74997
3.36708
3.30071
4.00216
2.20877
2.73858
3.46723
3.21355
4.90353
3.36715
3.80006
3.8458
4.66835
4.21168
4.93731
3.57955
3.60592
4.26999
3.48396
3.88375
4.9542
6.33689
3.7251
4.97384
4.91264
4.9614
6.23252
4.58833
4.53066
6.02235
5.07394
6.0911
1.02342
4.84166
4.73253
7.20159
6.09208
5.89094
6.6277
4.50788
5.08572
6.58508
4.54649
3.85898
4.47539
4.82539
4.43931
4.82053
0.264674
1.02476
2.69847
2.65963
0.550587
0.762191
2.04627
1.87824
3.17874
6.63428
6.04065
5.35037
3.95928
2.54719
5.68109
5.58658
1.41002
2.87403
1.81999
1.4266
1.53596
1.9943
1.41337
1.73944
4.74072
10.1361
5.10492
5.95589
5.94329
5.651
5.58643
5.48515
-1.06608
0.229319
0.20595
0.257924
-0.419644
0.804935
-0.553179
0.706777
-0.860013
-1.38992
-1.88542
0.20738
-1.32083
-1.14116
-1.7107
-1.08848
-0.205724
-0.777609
0.375472
0.0953385
0.439202
-0.0305389
0.0825279
-0.730365
-0.698051
-0.112143
0.458392
0.0677448
-0.0891151
0.212196
0.0941651
0.391965
1.60878
1.19458
-1.54966
0.527253
0.754594
0.290572
0.11076
-0.285066
1.81157
1.9248
-0.357474
2.48871
1.8482
1.08359
1.50439
0.703111
1.07754
1.47428
1.31974
0.686727
1.18366
1.74329
0.877183
1.16262
4.98993
6.58377
5.77913
6.1005
5.75078
5.81032
5.63984
5.98814
1.20026
1.36942
0.983777
0.832391
1.16908
1.24186
0.839932
0.976403
4.78155
5.30113
3.59962
4.37657
5.54366
4.55866
4.54903
4.43711
0.314531
2.97203
2.371
1.15456
0.726614
1.82882
1.05023
1.4843
4.97272
4.29307
4.64362
3.48195
4.76836
4.88182
4.47228
4.45458
3.71529
4.17386
4.74165
6.41303
4.81855
3.65716
5.83607
5.03043
4.5637
3.23607
4.90985
3.79839
5.14457
4.53113
5.11063
3.97907
4.501
3.18166
3.1311
2.05857
3.98315
3.45955
2.94487
2.83712
4.76521
6.78115
4.02899
5.18011
6.02591
5.35691
5.09832
4.98946
1.89404
2.08138
2.98911
3.35554
1.39763
1.31818
2.1735
2.58317
-0.53624
0.902675
0.5687
0.648805
-0.348315
0.14057
0.0204297
-0.0776936
4.46093
3.96202
3.11215
2.94149
4.02738
3.38477
3.3607
3.38058
1.73783
0.604062
1.6003
0.0910132
1.43553
1.45909
0.385144
0.902119
-0.104062
0.71283
1.56008
0.274288
0.0406932
0.030153
0.333313
0.660924
3.65043
3.88665
5.44433
5.11371
4.16053
3.70281
4.74439
5.27709
-1.96871
-3.02348
-2.93949
0.109717
-1.72556
-3.3653
-0.858396
-2.6728
0.0628379
1.26173
2.54225
0.78549
0.197796
0.290267
0.766845
1.04365
-0.703065
0.793116
1.01753
-0.33922
-1.35717
-0.187654
0.105273
0.280054
6.24902
3.61689
5.73948
3.82345
5.43181
4.52723
5.35729
4.98467
1.94008
3.55936
3.76263
3.94595
1.74619
2.69579
2.11969
3.78076
0.341399
0.76293
0.869903
1.05704
0.960511
0.900556
0.736972
0.271479
5.43274
3.78308
4.27032
2.15309
3.92387
3.75928
3.47411
3.54556
4.35912
2.6859
2.57911
4.08018
4.42482
3.96704
4.04308
3.12984
0.0689468
1.77876
0.752928
-0.172689
-0.335639
0.301404
-0.358229
0.825861
-1.19065
-0.0404123
-4.22188
-3.54417
2.83841
-0.801557
1.13467
-0.796047
4.60558
3.58868
3.71429
3.40578
4.74313
4.22656
4.9008
5.16936
-2.31559
-2.22005
0.0108147
0.174045
-1.15185
-1.49177
-1.54095
-1.56788
-0.744298
-1.75583
-0.778395
2.15082
0.078471
-1.28789
0.619809
-0.111841
4.05305
0.817198
-0.896723
4.06331
1.26735
1.57109
2.76751
0.78222
-1.42905
1.94544
0.828621
-0.89456
-4.97828
-1.37929
-3.70038
-2.95121
5.59645
4.48228
5.08121
3.74852
5.90931
4.81451
5.94349
4.85743
0.304088
0.144653
0.500072
0.327989
0.359269
0.239138
0.362038
0.357883
4.7847
5.48246
8.18626
5.46653
6.23152
4.55263
5.05783
4.65472
6.51838
4.56522
5.63083
4.45979
7.20239
6.39549
5.33946
4.83875
1.2517
0.970881
1.75474
1.79485
1.10578
2.98199
0.288295
0.732856
3.78606
3.47621
4.19618
3.51135
3.92966
3.63661
4.05399
4.08614
0.227528
0.753621
0.0482183
0.562545
0.280445
0.227997
0.238614
0.107829
0.0514073
-0.355561
0.015079
0.302913
-0.474015
0.038601
-0.402882
-0.198937
1.92206
1.30728
1.19286
0.468769
1.44912
1.63055
1.0635
1.00003
2.12552
1.63276
1.5188
1.88833
0.859502
0.661511
1.21192
0.840318
5.14444
5.03145
4.63842
3.91438
4.93885
4.51312
3.98804
4.2904
0.68401
-0.734269
0.588432
0.547661
0.631307
0.074047
0.392058
0.0495372
3.74369
4.65397
5.32385
4.72366
4.47993
5.22545
4.87794
5.47452
0.317689
0.549114
0.568344
0.789786
0.473601
0.403884
0.637925
0.685241
1.67494
1.54481
0.884374
1.32866
1.95885
0.794863
1.17476
1.07982
3.3157
2.33611
3.5659
3.29977
3.72198
2.52979
2.20218
1.89822
1.25277
-1.30657
1.93622
1.12621
0.205236
0.189326
1.11754
1.21359
5.66352
5.00185
5.91823
3.21377
4.39528
5.44413
3.60161
4.63675
-2.86829
1.03113
-2.14731
-0.639119
-3.54784
-2.48624
-2.70645
-2.88075
5.5283
5.49965
4.48851
4.0302
6.00323
6.46453
5.11715
4.62433
5.74211
5.49979
4.78489
6.14213
7.1469
6.08824
7.63253
6.89102
-1.23611
-1.77258
0.228324
0.570114
-0.569508
-0.742511
0.983362
1.06561
2.48611
0.998963
0.717051
0.387746
1.50331
1.14517
1.01659
0.932106
5.48484
5.91963
5.34787
4.3657
5.45684
5.81016
5.34762
5.0733
0.517071
1.8956
-0.473301
0.493561
2.19423
-0.229527
1.2876
-0.361645
0.177977
0.364678
-0.145316
0.505165
0.15041
0.33128
0.217373
0.24362
0.339432
0.2002
-0.117628
0.227437
-0.679714
-0.320713
-0.243196
-0.191176
5.08333
5.40557
5.23857
5.58514
4.8302
4.65515
4.68341
4.91813
-2.66121
-0.558144
-3.37689
-0.878329
-2.04627
-1.51468
-2.38786
-4.08074
2.986
2.49662
1.77221
1.48401
2.48605
2.47506
1.94997
1.54899
1.40921
2.6982
2.1787
0.825436
1.48595
2.13686
1.26194
1.85878
1.5038
8.3258
3.50128
4.80356
3.78047
4.64268
5.74399
5.39424
0.466488
0.504908
0.231561
-0.139713
0.644882
0.712591
0.443254
0.352189
0.344611
0.400789
0.656731
0.359677
0.337685
0.611596
0.784202
0.668054
1.39017
0.714578
2.35229
1.46651
1.38621
1.07542
1.44158
1.10613
0.0312077
-0.0583417
0.415869
0.302456
0.0191069
-0.0139021
0.250034
0.204242
3.08998
1.68654
3.43926
2.89876
2.22792
2.3665
3.21707
2.96683
3.07339
3.18984
5.46223
4.51764
3.79022
4.2189
4.8924
5.2235
3.51529
3.15885
3.04268
2.80608
3.03406
3.3062
3.29576
2.92074
0.389793
0.604686
0.129491
0.488108
1.71389
1.12919
0.974518
1.49201
0.408774
0.547155
-0.40716
1.09633
0.767
0.246262
0.82802
0.131218
5.4641
6.15047
6.34065
5.20681
5.14329
6.33897
7.77719
7.25886
4.69423
4.83732
3.54316
3.8344
5.1861
5.92691
4.40188
4.43771
5.43363
3.9414
3.54749
3.98924
5.2596
4.06707
4.41479
3.60185
2.82748
-0.217596
0.40305
1.8613
1.21772
1.24129
-0.0702169
0.177376
2.60523
3.10845
1.54715
2.00914
3.05305
2.70611
1.71512
1.84428
1.96322
1.13824
0.784481
0.810078
1.40894
0.228834
0.857296
0.618639
-3.66122
-7.13135
-0.165969
-1.48731
-4.00161
-4.3617
-1.08382
-1.3148
6.61353
6.7453
6.3243
4.33123
5.41507
6.97758
4.49086
4.34999
-0.163736
2.37499
0.710706
2.97985
1.3455
1.56759
2.10684
2.54143
2.77765
3.12636
3.24163
2.58519
3.13307
3.48372
3.28059
3.31919
-8.36729
-0.021123
-4.66704
-0.140421
-2.2087
-2.4953
-2.89629
-3.63768
0.362446
0.379512
-1.43087
0.842775
0.297834
-0.129972
0.197804
-0.435477
1.83082
0.59306
-0.131971
0.0792817
0.83715
0.51134
0.18158
0.0554676
-1.82005
0.932656
-1.67837
0.46504
-1.02245
0.416838
-0.620506
0.697751
6.38297
6.43525
4.66114
5.45062
5.91167
6.3007
5.36721
5.38168
0.218371
1.76381
1.37854
0.348998
0.658146
1.34938
0.677339
1.29827
-2.13802
1.46543
3.90485
1.32715
0.625664
1.12846
0.061619
-0.0447862
1.6465
3.14053
-2.16428
0.0369805
0.363294
1.66103
-0.852823
-1.9946
-3.73757
-0.609048
0.644748
1.25652
-0.504929
-0.819358
0.465053
0.546126
4.41795
4.46469
4.3839
3.1258
4.31265
4.54353
3.75636
4.54553
5.90011
4.40667
3.48206
3.35716
4.39183
4.93155
3.8309
3.77902
4.23388
2.64072
2.47254
3.41733
3.87933
3.18715
3.47939
2.8901
-5.02361
0.770308
-0.00927686
0.706837
-0.808935
-0.490742
0.50657
0.96156
0.908798
2.01848
1.82335
1.246
0.548413
0.619026
1.0599
1.14527
3.88317
2.58136
4.13782
3.06757
2.94063
3.36201
4.12009
4.26444
8.7163
7.07654
4.55841
4.63622
6.86552
8.17175
4.71674
6.31062
2.06809
2.11317
3.32038
3.72195
2.14859
1.32009
1.99621
1.10705
2.29562
1.83833
2.22138
0.724819
1.82249
2.32132
1.56768
1.84791
-1.70535
0.570712
-0.516369
0.364679
0.268188
-0.339835
-0.616943
-0.625469
7.9345
4.49964
6.3073
5.88204
4.94673
5.77069
5.9873
6.52868
-0.116227
1.29074
1.71197
-0.168168
-0.242257
0.97857
0.0300846
0.743409
0.924592
-0.716714
1.09165
-0.0390631
-0.401971
-0.803691
-0.039622
-0.631521
2.18531
0.945191
1.62177
1.97111
1.85289
1.57257
1.90749
1.39346
0.699459
0.509284
1.1174
1.90961
0.75246
0.724419
0.950677
0.915957
3.32251
3.98042
4.28676
3.73753
3.91401
4.84385
3.95819
3.82891
8.37606
5.63332
5.60101
5.3467
7.43609
4.69964
6.2334
5.7861
4.70272
1.31042
0.891971
1.56541
1.38116
1.08645
1.8239
1.5957
0.376083
-1.76138
0.18856
0.312661
0.322469
-1.10824
0.639115
0.328506
1.83914
2.73205
0.593644
1.36477
1.48884
1.7229
1.48912
0.795566
-4.37467
-5.17499
-1.2729
-2.81803
-5.86453
-7.14584
-3.92729
-5.32746
8.85088
5.04959
6.07988
6.5772
6.83124
7.11113
5.60167
6.37812
0.62417
0.311431
0.0266517
0.619859
0.578501
0.258226
0.506891
0.145676
0.771596
-0.292832
1.16866
1.04417
0.134601
0.335071
1.05391
0.823778
0.756053
0.903569
0.125594
0.330641
0.659993
0.726701
0.359837
0.500986
3.41137
6.91964
1.56701
6.21421
5.13886
3.62602
6.90293
5.44338
-0.490234
-1.34684
-1.7028
0.173314
-0.950551
-0.699878
0.231726
-0.33899
4.60307
8.06527
6.56466
5.06258
6.30409
5.20976
5.23406
6.17596
3.05273
3.8577
3.27515
2.53525
2.86173
4.19528
2.59412
3.57969
5.8895
3.23959
4.02237
4.96137
6.00304
5.64963
6.04829
4.74616
0.404766
0.208926
1.42689
0.58816
0.142884
0.730138
0.467119
0.483274
0.677064
0.912164
-0.134385
0.629465
1.40116
1.47679
1.34641
2.11383
2.82884
3.10251
3.75831
3.24283
2.71463
3.24228
3.11857
3.33634
2.63626
0.720894
1.85207
-0.275199
1.18417
0.674595
0.0529454
0.506965
0.0796696
0.149551
0.159227
0.399882
0.168971
0.052072
0.218226
0.171519
3.99633
8.87698
6.00243
6.39575
7.08074
7.07466
5.57886
7.06763
0.450213
-2.8088
0.596899
0.94747
0.389961
-1.83384
0.564706
-0.582496
0.97497
2.94324
1.60705
2.85134
2.31759
1.64227
2.63404
0.6703
0.955559
-1.12861
-0.516171
1.27576
1.13054
2.0801
0.208772
-0.333396
0.334172
1.77113
2.0075
0.276067
0.834366
0.542993
0.585123
0.771372
4.08242
2.14542
2.37605
2.96307
3.36323
2.6002
3.5052
2.79142
0.144029
0.157434
0.23321
0.374604
0.207106
0.17799
0.235769
0.24804
2.82376
4.08978
2.30798
3.18278
3.83223
2.95819
3.04842
2.68229
3.98296
3.19971
5.23798
3.92068
4.1838
4.51339
4.69224
5.80311
-0.103055
-0.112306
0.058622
-0.0474678
0.47909
-0.288863
0.433344
-0.0374987
0.476109
-0.0104078
1.64357
1.35903
-0.0910601
0.284508
1.1345
1.22753
2.68729
3.25498
1.68828
2.76493
2.85774
2.55587
2.6618
1.91859
13.2282
10.7016
8.58419
5.06669
8.48105
9.43834
7.33664
9.32631
1.56717
2.26608
3.75224
1.76349
2.25476
1.91276
1.70624
1.86537
-0.767162
-0.162599
0.38281
-0.238343
-0.488653
0.917926
-0.760311
-0.0190461
2.98283
0.807783
1.64513
1.8917
2.17972
1.24598
1.96314
1.35472
0.641222
0.504459
0.645127
1.45039
0.946827
0.771132
1.08929
0.773128
-0.261608
1.04432
-0.955283
2.18895
0.232006
0.147501
0.555549
0.281444
2.09298
1.11551
0.955875
0.44747
1.60993
1.63643
1.03089
1.02333
4.44921
3.48692
2.30417
2.92796
3.59676
3.29781
2.98006
2.85516
0.261383
0.420159
1.66243
0.119444
0.299039
0.483676
0.295147
0.543055
0.254524
1.73663
2.5199
0.328552
0.298865
1.66966
0.122867
1.25312
-0.310679
-0.0341498
2.67208
0.668478
-0.449179
-0.180169
1.3231
1.12433
2.3613
2.68401
3.93672
2.56479
2.65474
3.0698
2.72501
3.34844
0.0569648
0.448122
-0.936377
0.24256
0.2149
-0.852551
-0.0459597
-0.840906
4.99721
6.41711
7.78927
3.2089
6.09166
6.57359
5.09046
6.50934
4.07432
3.13888
3.24725
3.71871
3.79639
3.48202
3.99327
3.29581
0.0470337
1.66292
-0.0625013
0.358664
0.00988007
0.442939
0.0491432
0.244429
3.02499
3.91791
2.93466
3.8329
3.55142
3.49161
3.54437
3.6332
4.16784
4.78978
2.65468
3.5497
4.32629
3.68452
3.98779
3.48225
-4.37664
1.61379
-2.82032
0.406985
-2.65559
-0.94974
-3.0952
-3.25452
3.19197
1.70549
1.00746
1.42159
2.50435
2.39439
1.30098
1.29591
-1.38195
-2.47984
-1.64108
-0.417125
-1.06475
1.62803
-1.41754
-1.58892
-0.277265
-0.491105
-0.11456
-0.0762482
-0.231544
-0.206821
0.39981
-0.0546454
-1.38011
0.330423
0.636944
-0.439563
-0.462554
-0.216904
-0.174137
0.0434834
6.45194
3.62538
3.91682
4.29713
5.30652
4.26571
4.6932
3.59332
-2.22255
0.049674
0.555661
0.266246
-0.0861938
0.299742
0.175987
-0.249641
0.935685
0.750542
0.571796
0.53811
0.0411914
1.03869
0.0498936
0.540545
5.9848
4.86022
3.48695
4.74964
3.59468
4.58358
4.45857
4.61608
0.701961
-0.399798
0.221697
1.01607
0.611512
-0.11997
0.375955
0.00119855
0.754439
2.74438
0.85263
0.647646
0.339939
0.807469
0.253288
0.0117939
0.53917
-0.340541
0.0691536
0.330441
0.695762
0.180888
0.460074
-0.067628
-0.133885
1.67492
0.706267
1.23691
0.935127
0.747378
1.42443
1.12307
2.24218
2.76349
2.32522
1.22221
1.92812
2.36262
1.51731
1.97627
3.57035
5.02777
5.61244
0.810166
0.773073
2.90181
1.51336
2.74448
1.54413
2.38116
2.58308
2.18398
2.00765
2.52809
2.28313
2.61333
1.41866
1.92829
1.83974
1.58957
1.59453
0.717356
0.462034
1.21848
-0.950022
-2.69409
-0.452431
0.582841
-1.42014
-2.52964
-0.0867628
-2.01017
0.333974
0.308457
0.140043
0.633954
0.458789
0.230833
0.476218
0.254997
1.44502
7.83821
5.28985
5.91106
4.70248
3.94852
6.35778
6.77201
0.875132
-0.0165604
-1.88168
0.79356
-1.88045
-1.41154
-3.26736
-3.15796
-2.95604
0.955471
-0.734018
-0.349248
-1.74888
-0.703637
-1.88203
-0.537801
-14.918
-18.5804
-7.83177
0.795697
-10.992
-13.5588
-4.86173
-9.63441
2.33972
2.70602
1.87018
1.06496
2.19655
2.41812
1.67904
1.86509
1.1645
0.809306
0.549283
1.39015
0.881685
0.607701
0.818522
0.762022
1.88364
0.930811
1.49798
1.26711
1.48313
0.397315
1.5409
1.28221
1.46362
1.67625
2.59838
2.18063
1.69445
1.92856
2.34242
2.45151
2.85226
3.09993
3.37546
3.40476
3.80024
3.7869
4.11542
3.41601
0.95721
0.131753
-1.03067
0.825852
0.826867
-0.464895
0.63429
0.200079
-3.55006
1.50548
-0.93122
1.29534
-0.774066
-1.70914
0.0937148
0.565649
15.7423
13.0064
11.3333
6.22123
13.551
15.687
12.2083
9.27547
2.3178
2.54167
2.43138
2.89273
3.32335
3.66948
2.7191
3.95785
3.97158
4.84403
5.60179
2.72521
2.88202
4.94889
1.94275
5.30662
-0.361021
0.635656
-0.0895724
-0.186794
0.0564844
-0.688654
-0.0407164
-0.119084
3.97204
4.09852
2.41347
4.38827
3.66353
4.034
3.75581
4.29086
-1.01768
2.61437
1.80804
0.106863
-0.692055
1.0465
-0.193396
1.33663
5.05529
12.0905
19.4835
4.68677
8.72836
13.1624
9.64395
17.0298
2.56197
1.47061
2.35587
1.66108
1.86332
2.00221
1.7683
1.67859
0.186554
8.391
7.6076
6.46779
0.719095
3.68062
0.932786
5.66399
4.90097
3.81355
9.73746
4.74982
5.08172
4.25699
5.8233
5.29455
-5.42745
0.400195
-3.6732
0.0179438
-1.18704
0.469899
-1.24545
-0.494915
3.54463
3.0429
3.86364
3.86989
3.26833
3.81629
4.74842
4.51094
2.73721
3.05793
0.391521
4.62883
1.51776
0.723523
3.79145
2.00007
0.96502
0.74802
2.16285
2.2196
1.28485
0.948503
1.67831
1.24808
10.2844
-2.96849
-1.88406
2.35841
8.16413
1.52428
6.10345
0.345064
4.64322
0.926693
2.27791
3.30492
3.99089
1.78476
3.65333
1.30272
5.40667
3.11618
3.37543
4.50354
4.85548
3.89203
4.52888
3.53163
-0.731978
2.08793
0.890359
0.135012
0.114469
0.790139
0.0984477
1.07077
-0.421057
0.695646
0.351881
-0.0860519
-0.19323
0.226376
-0.0514051
0.424763
1.94924
2.62944
3.1851
1.74573
1.81044
2.3465
1.98379
2.54445
4.30846
3.91699
4.36519
3.81952
3.75078
4.01103
4.05517
3.80161
-1.75345
1.61501
-0.569991
0.964942
-0.878027
-0.413932
0.594671
0.777075
10.1617
10.0231
6.4733
7.56486
8.27896
7.85957
6.18759
5.88994
-4.23635
-1.61064
-2.05618
5.94072
-0.882081
-2.13931
0.767729
-1.25461
-1.52099
-0.139671
2.24635
1.15019
-0.864283
0.143971
1.82083
1.38649
0.132098
0.102611
-0.346454
0.083963
0.0880683
-0.143117
-0.0724347
-0.262726
4.3567
2.62516
4.41258
1.31731
3.60072
3.51783
3.57293
3.49714
0.62336
2.75289
-1.49206
5.91135
3.41632
1.69119
3.94148
4.18017
-0.660713
-0.665272
0.924697
0.286777
0.477905
-0.32239
0.312326
0.418288
0.95854
-0.101105
0.652259
0.804756
1.63889
0.465532
1.01952
0.957513
2.35112
2.61156
1.40651
1.64794
2.83754
1.83797
1.99075
1.91201
2.45076
1.64671
3.0237
1.55571
2.10488
2.28705
2.15504
2.2338
3.60855
2.26277
1.73216
2.84912
2.87935
2.12686
2.72292
1.97232
0.403645
0.873099
1.05906
0.47853
0.212696
0.480806
0.218949
0.808855
1.49209
4.35843
1.81159
3.03031
3.0096
2.55961
2.67321
2.60725
3.65375
2.43798
3.27185
2.76599
3.36387
3.60998
3.0527
3.2048
4.97622
2.75264
4.64215
2.65341
4.13137
3.9163
3.81838
3.77377
4.8917
3.72983
3.17516
3.57362
4.47838
4.01457
4.07362
3.69085
0.312228
1.00969
1.31163
1.55316
0.682893
0.295175
0.627468
0.42749
2.44654
4.4883
2.58935
3.20252
2.82386
3.79166
3.77363
3.38147
0.872665
0.210452
0.907561
0.0611219
-2.06168
-0.389934
-0.888727
-0.337653
-0.346415
1.37884
0.885455
-0.048865
-0.505467
0.124955
-0.551619
0.586729
7.27572
5.85815
5.60159
5.0292
6.38904
6.14064
5.79576
5.35144
9.77928
7.49609
5.61939
7.84618
9.64202
7.78347
6.84708
5.17624
0.0717853
1.88784
0.369845
1.32394
0.431494
1.33001
0.874068
0.883954
5.11943
4.46622
9.08872
5.49689
5.85957
6.23759
7.02731
7.76253
3.05954
2.40968
0.852231
2.2933
2.88796
1.92706
1.90922
1.37363
5.2429
3.7729
2.59862
1.88921
3.8256
3.81776
2.76078
2.23454
1.31927
1.30232
0.433654
0.214267
1.38727
1.49561
0.222988
-0.141232
0.160071
0.0381936
0.0949502
0.356135
0.189666
0.0729085
0.284465
0.143403
-1.34126
-0.133711
0.863277
0.414739
-0.633835
-0.454419
0.240495
0.251952
0.135813
0.768344
0.11597
0.592317
0.338544
0.371765
0.422173
0.484692
6.81532
0.201755
3.40965
1.02608
2.89433
4.04446
2.1824
3.64184
1.03733
-0.35182
0.0384647
0.64809
1.28254
-0.25479
0.468623
0.211574
13.2113
5.50027
7.70592
4.61675
8.34301
10.6806
5.70105
7.4701
1.69097
6.49067
3.50934
1.91451
1.87976
3.46842
2.76047
3.73624
1.61125
1.00643
1.83725
1.41081
0.949903
0.338078
1.40527
1.26997
0.797803
0.671364
0.823033
0.341331
0.593105
0.359578
0.357204
0.593216
2.13742
0.695118
2.73454
1.41893
1.7399
1.3017
1.91349
1.65666
1.15318
1.14733
-0.714816
0.215186
0.947768
0.839028
0.851781
0.266509
2.62325
4.31792
4.41164
1.67846
2.88235
4.05373
1.79121
2.71992
-0.0432033
0.0107025
0.00426798
0.167603
-0.0475716
-0.00599067
0.0401389
0.0358002
0.211326
0.415555
0.800052
0.0927267
0.238989
0.0603028
0.141417
0.427894
4.25595
5.62393
3.07143
3.06702
3.97795
3.49256
3.25919
2.82129
2.26148
1.41586
1.39014
2.4861
2.37002
2.18699
2.17111
1.61858
1.83191
3.88793
1.44502
0.743263
0.767587
0.929513
0.553575
-0.0351131
9.97046
3.9823
11.2796
6.47475
7.86507
6.51916
7.72842
8.23702
0.406594
0.831797
1.75422
1.07875
0.428107
-0.270056
0.275185
0.197121
1.94769
2.49563
4.36562
2.77187
3.11794
3.60771
2.987
3.45688
4.44159
3.79409
4.38834
3.4096
3.66612
4.04878
4.11017
5.57664
3.51986
3.02872
6.53577
2.85422
4.77874
4.00576
5.29969
4.17416
1.49035
2.16015
4.29433
1.49833
1.75105
2.55023
2.00316
3.2543
1.63255
1.72291
-0.541323
0.0793561
0.344857
-0.179666
-0.608802
-0.403175
2.91218
2.54993
4.29279
3.14689
3.76029
3.25261
3.85733
3.53218
2.59423
1.98668
2.11305
2.54647
2.81325
3.57847
1.91957
3.23392
0.63868
1.24556
-0.459583
1.56493
0.700291
0.955947
1.96167
1.25786
0.301419
1.55863
1.74816
1.83195
0.948657
3.09966
1.93083
2.25679
0.0158604
-0.00809638
-0.0446352
0.222844
0.0466158
-0.0167437
-0.0071882
-0.0657231
0.305376
-1.22624
1.04058
2.0842
0.906266
2.52779
1.34037
1.23202
0.941274
3.85637
4.00467
5.45854
5.30972
5.59704
2.5899
5.26588
0.448263
0.0686458
0.0374176
-0.18317
-0.20852
-0.385694
-0.103489
-0.185808
6.6809
3.1789
5.23561
2.04631
4.75195
4.37153
4.30332
4.43715
-0.0147347
0.352475
0.723543
0.434648
1.21254
1.32317
0.949239
1.01262
7.33277
7.08389
3.24556
4.38893
5.4473
5.16859
3.40825
3.51642
0.0791934
2.51103
0.789987
1.53123
0.990525
1.08812
0.892156
0.803876
0.545134
3.70697
2.29928
1.29824
0.903409
2.68727
0.747262
2.23588
2.07843
3.40247
3.21718
2.00727
1.9929
2.53758
2.22882
2.56278
6.23733
6.20764
7.77761
7.12462
6.10307
7.0053
6.60936
7.5233
-0.910179
3.35084
-3.76398
2.40774
1.44493
0.504927
-0.716406
-1.5469
1.12506
2.58098
1.85559
1.01074
0.0977975
1.67517
0.601934
1.31742
0.115268
0.925819
1.00087
0.220176
-0.260964
0.383527
0.233202
0.602137
1.57299
0.151104
1.17464
0.608116
0.530988
-0.0119245
-0.216889
-0.791844
3.77853
2.47858
4.4986
1.29025
4.26349
5.77528
4.14066
6.14786
2.10961
1.21987
1.56387
2.31483
2.20766
1.6401
1.80755
1.7061
-0.023783
0.454034
-0.0826937
0.115125
-0.1102
-0.347277
-0.938412
-0.565711
6.65617
4.03122
4.46794
4.72235
7.8127
6.25949
5.92988
6.42057
0.183162
0.159778
0.089645
0.351463
0.221518
0.088534
0.238736
0.133569
6.04012
2.75618
3.76699
3.43328
3.64115
3.06135
3.41205
3.4649
3.05848
0.792666
-0.206451
0.724826
1.3465
1.973
0.370126
-0.215622
5.14022
4.76935
5.70622
4.25978
5.50755
4.48386
6.52683
5.58293
1.10795
1.35835
1.75094
1.28831
1.19757
0.590679
1.19471
1.35523
5.03884
9.2008
3.52212
4.08414
6.33793
4.42335
5.29066
4.13906
2.87693
2.79444
0.806999
3.09444
1.86378
1.12535
2.16165
2.98639
3.76738
5.88076
5.1426
4.69661
4.39401
5.32448
4.3104
5.12985
0.809531
1.59256
0.287161
1.9695
0.945571
1.0361
0.836316
0.675806
5.87626
6.46764
4.72827
4.96651
5.94224
5.71884
5.15481
5.31554
9.02703
5.87227
9.32329
6.04402
8.18986
7.97652
8.2138
8.51921
2.21167
1.06446
0.984742
0.981937
1.55878
1.54504
1.78734
1.00761
-0.0345452
0.56524
0.412694
0.172013
-0.233135
0.0687663
0.167462
0.317832
2.50322
1.38929
1.66853
2.04574
2.19381
1.87857
2.14509
1.71225
-0.204999
0.607039
0.471039
0.581553
0.308284
-0.130354
-0.104532
0.252732
3.06752
2.36369
3.93734
1.64385
2.26743
2.71783
2.56916
3.01847
0.449784
0.603522
0.252432
0.1737
0.0671701
0.0138006
0.0095382
0.171187
-0.0585305
0.66442
0.192155
0.704515
-0.0979897
-0.0769471
0.170984
0.187323
-3.04477
1.02871
-0.239608
0.327631
-0.343663
0.733903
0.0898824
0.987816
0.287954
-0.13453
-0.154126
0.956706
0.0112697
-2.29901
1.31622
-1.03169
2.84021
3.61132
4.04371
2.65619
3.3299
3.91938
3.03195
3.85708
2.37439
2.52376
3.30445
2.60375
2.83177
3.07704
2.60528
3.10942
5.41332
6.55373
4.14438
5.8342
4.9075
6.1268
4.7681
4.62791
4.56643
4.12191
3.8919
3.23744
3.78045
4.08523
3.77662
3.82833
0.814604
2.2542
-0.169628
0.12363
-0.954223
-1.63209
-0.659332
-1.87976
4.12845
4.07016
4.24156
2.68669
3.62181
4.24818
3.12603
3.98729
-0.213368
0.707846
1.04527
0.0228362
-0.456134
-0.0526464
0.184633
0.164508
3.17148
5.77666
1.11422
4.63805
4.04079
5.29102
3.81422
3.95481
1.05195
0.63034
1.94878
1.65172
1.08672
1.08924
1.57112
1.62486
0.746732
0.110226
0.0545791
0.599927
0.49762
0.127068
0.316405
0.114909
4.43771
3.24343
3.42677
4.11138
4.37567
4.02562
4.08488
4.40018
3.77753
1.88382
2.3736
2.45608
2.26385
5.72748
2.7429
4.06638
2.76738
1.44583
3.44871
2.76988
2.25607
2.06648
3.21932
2.9524
4.02736
4.34545
3.32972
3.56579
4.15974
4.33673
3.92059
3.70664
0.219702
1.29209
1.17786
0.868133
0.852585
1.36501
0.941671
1.02654
4.28039
4.32609
4.96077
4.37227
5.1933
5.02841
4.77574
4.88515
4.24
5.57062
4.83977
5.29847
5.91494
4.76436
5.54481
5.59744
0.929026
0.625239
-0.269227
-0.0850365
0.0400299
-0.355374
0.292611
0.056947
2.18024
1.71658
2.04366
2.08206
1.28958
1.4362
1.64019
1.66759
1.38135
1.22302
-0.16992
1.59849
1.17915
0.831923
1.2531
0.728641
-1.03308
0.944988
0.518713
0.841238
-0.276277
-0.522555
-0.426981
-0.873307
0.37967
0.570577
1.4955
0.415161
0.3752
0.65824
0.0937564
1.0724
4.35935
1.64197
1.4326
2.34557
1.88788
1.81547
1.92081
1.52105
3.87409
3.91632
3.49415
2.76978
3.72149
4.14769
3.43696
3.75447
3.30212
3.59345
2.60136
4.93539
4.0066
3.43194
4.21927
3.72341
4.93661
4.71371
4.71214
3.9516
4.85053
4.7276
4.73143
4.85209
13.8139
15.4529
14.7831
5.61882
12.5101
13.8736
11.4286
13.6778
2.0327
1.98305
2.97325
3.13522
2.82465
4.1127
3.27957
3.40908
1.7469
3.34335
1.95232
2.39035
2.57519
3.09818
2.33718
2.31625
6.61324
3.36666
4.34581
3.26599
4.88054
5.23629
3.52915
3.85188
2.85523
2.68868
-0.463691
0.668004
0.986994
-1.17023
-0.581634
-1.99172
1.9085
-1.75775
-0.838518
0.585643
-0.915592
-1.24994
-0.443972
-1.3275
4.82849
3.17982
2.30767
2.54747
3.46341
2.8176
2.76443
2.44147
3.03379
2.00211
4.81853
2.64565
3.54786
3.72382
2.92795
3.40459
-2.02705
-3.76068
-0.294654
-1.86836
-1.74249
-2.59903
-3.39548
-2.89789
3.18921
1.31074
1.30887
2.08874
3.33266
2.14938
2.23755
1.35722
5.57488
10.6745
2.71894
4.49798
6.96569
5.7795
5.84186
4.65844
-8.31092
4.52702
2.25135
0.822178
-2.0672
-2.33016
-0.733261
-1.31392
2.47194
0.893328
2.13708
0.917903
1.79836
1.38287
1.63558
1.49335
0.806466
0.663643
1.27863
0.449309
0.610622
0.831929
0.712374
0.91042
1.26548
1.20282
1.2402
1.7637
1.11988
1.18359
1.22549
1.27822
0.617007
0.619388
-0.148004
0.799509
0.0571904
-0.140961
0.0806312
-0.398436
-0.596995
0.721443
-0.480925
0.144887
-0.21368
-1.34513
0.719249
-1.15374
0.98421
0.462853
1.1682
1.7385
1.11562
0.814413
1.45676
1.21566
9.26128
8.30704
7.53706
5.95684
6.14493
4.73761
6.67821
6.42727
3.15172
2.01576
0.729626
1.89546
2.07621
1.67323
1.6154
0.891283
-1.08342
-0.0174056
-1.39763
0.304685
-0.968898
-0.896745
-0.235894
-0.549041
1.14138
0.0458413
1.11866
1.4724
-0.185832
3.82907
0.0478329
1.90807
1.43661
1.86631
0.875018
2.31788
2.02685
1.33931
1.99553
1.39948
2.04711
1.42367
1.66038
1.99811
1.25839
0.999392
1.64371
1.94356
0.739884
1.39025
1.56314
3.42852
2.6283
1.315
2.98325
2.28495
0.750019
0.860551
0.111115
1.22363
-0.425254
-0.0614071
0.361028
-0.265367
-3.21887
1.46218
-4.94378
-2.69571
-4.46127
-2.78555
-4.91278
-5.93484
1.29351
2.67429
0.888612
1.70662
1.72846
1.78079
1.59249
1.77357
3.60732
3.15256
3.47627
4.09003
4.26857
3.94945
4.47585
3.53193
4.24584
4.10757
3.18849
4.04065
4.44524
4.16866
4.14593
3.66654
3.85479
4.31997
5.652
4.92885
4.29106
4.21248
5.21512
4.94982
1.78104
3.5191
1.00894
1.44353
1.47579
1.9843
1.42401
1.27193
-4.16175
-5.66662
2.35834
0.974423
-3.36658
-3.80868
0.875661
2.09478
3.43324
6.41331
6.05569
5.31797
4.97043
6.36301
4.64982
5.26885
-4.38139
-2.63568
0.270316
1.92511
-2.21827
-1.13001
0.896826
0.172153
11.8845
5.45879
11.934
7.50816
7.89815
8.09716
10.305
9.26076
10.0181
4.64299
3.5483
1.32091
6.9671
5.05886
4.54643
3.01825
2.41838
1.07906
1.60652
1.05701
1.53168
1.16731
1.41419
1.04184
-1.05967
5.57075
1.93628
2.31636
1.01213
2.21055
3.27468
2.80557
1.31821
-1.89359
0.590894
1.52891
0.779496
2.12419
0.721239
1.10716