/*--------------------------------*- C++ -*----------------------------------*\
  =========                 |
  \\      /  F ield         | OpenFOAM: The Open Source CFD Toolbox
   \\    /   O peration     | Website:  https://openfoam.org
    \\  /    A nd           | Version:  12
     \\/     M anipulation  |
\*---------------------------------------------------------------------------*/
FoamFile
{
    format      ascii;
    class       surfaceScalarField;
    location    "50";
    object      phi;
}
// * * * * * * * * * * * * * * * * * * * * * * * * * * * * * * * * * * * * * //

dimensions      [0 3 -1 0 0 0 0];

internalField   nonuniform List<scalar> 
83056
(
20.4588
-25.9589
17.0359
-11.5365
-25.6515
16.9754
20.3806
-11.7046
17.9463
-26.8909
21.6977
-12.7535
-13.1342
-27.3901
18.3379
22.1855
8.21745
-4.80255
17.044
-4.90345
-12.5308
8.67988
-26.6171
21.7228
0.424751
-0.206678
20.0185
-20.2404
-0.0502599
20.508
0.386419
-20.8437
-20.7941
-0.0204519
20.4568
0.357994
20.4859
-0.0570752
0.357836
-20.7897
20.6121
0.333363
-20.524
0.304893
20.2562
20.9221
-0.103584
0.432335
-2.19408
-6.80116
8.99324
9.80693
-2.20785
-7.6019
-7.23659
-2.44132
9.67748
0.0244457
-3.10368
-7.75063
10.8275
-2.53305
7.6796
-7.34524
7.27297
-2.61178
10.3147
-2.57545
-14.857
-18.7336
7.63205
-19.6796
-15.7377
8.02728
7.95983
-19.4082
-15.4415
26.4652
-18.9885
-15.1411
7.66481
11.4908
-33.9901
7.64274
-34.806
11.5781
-19.1029
-15.2675
-5.63262
13.2421
9.42632
-17.7065
-6.02395
14.2742
9.45648
9.31575
-5.73893
13.399
14.3998
-5.97072
9.90876
8.23866
-23.2331
9.36273
-23.4604
13.9937
8.21092
-5.93354
-16.9899
22.8471
8.37264
-14.2302
8.51613
-17.4935
23.6759
-14.7011
-14.3607
-17.3253
23.1959
8.49041
22.731
-16.9474
8.33713
-14.1206
5.86235
-8.58854
-14.2642
-8.76274
23.1404
5.79887
8.34319
-17.3249
-22.0332
2.7533
13.2558
6.04219
2.71484
12.9395
2.50608
12.135
13.4087
2.80627
-8.67216
-16.1565
2.79575
-15.5475
12.9176
-8.68136
-7.80655
0.0143053
16.9166
-9.12708
0.047035
-7.86557
16.5562
-8.73806
-8.84387
-0.072083
-7.94107
16.8567
16.5
0.128517
-7.83198
-8.79823
8.6807
-7.67909
-8.8094
-7.78867
16.516
8.76132
0.0589204
-7.87133
9.97551
-25.6317
5.81588
9.8402
5.90143
-25.9651
10.1562
9.90732
-25.6109
9.96703
5.83695
9.80505
9.86265
-25.7854
10.0695
5.85031
19.7861
15.8233
-25.6341
15.8269
9.86016
19.8153
5.87029
10.0309
0.375401
9.73732
10.5524
-20.6616
-20.2685
10.0011
-0.0934815
10.3642
9.99951
-0.0346397
10.3681
-20.3336
10.2226
9.96608
-0.0649647
-20.1217
10.4117
-20.1665
10.1306
-20.2806
10.4242
10.2976
-20.2409
0.0171542
9.66994
9.26534
-9.19581
-9.95966
9.50304
10.1376
-9.67909
-10.3694
10.4458
9.92657
10.3864
9.90218
-10.3221
20.1934
-0.116423
-10.4048
-0.0216009
10.2561
20.4015
10.0106
5.98134
-2.41195
-17.7348
14.1641
12.8465
-1.81701
5.6966
-16.7313
-1.78498
5.69803
-16.4226
12.5067
-16.9033
-2.20306
5.91598
13.1911
-11.3056
19.4288
-2.14533
18.7072
-17.1679
-11.1154
13.6397
5.8065
-22.8878
23.7513
-2.02531
1.15754
23.5168
-1.97805
-22.8019
1.25745
-1.31801
21.9386
-21.6056
0.983072
0.755322
20.5157
-1.18391
-20.0859
-21.4544
0.630818
-2.0666
0.614933
1.44577
-20.5022
21.8865
-21.2057
-2.05159
-16.6003
3.50642
15.1445
16.0272
-17.4204
3.6091
-2.22004
-17.4768
3.64892
-2.24826
16.0738
3.49362
-16.8354
-2.12926
15.4691
1.38297
13.6746
-17.1127
13.8592
3.54895
1.4532
15.7125
-2.16503
0.0412891
11.4643
-0.285218
-11.2223
-11.4967
11.6209
-0.232433
0.109062
11.4976
-0.0487138
-11.5471
0.0950636
-0.00964048
11.6854
-11.8056
0.129864
-0.186115
-11.38
11.6088
-11.4307
-0.253889
0.076483
-11.4673
0.143365
1.86721
8.27901
13.3405
-23.4872
7.58864
12.4648
-21.8577
1.80119
13.3357
7.51028
-22.723
1.87798
-23.0173
7.76555
13.3398
1.91386
-21.321
9.73417
13.4555
9.64324
-23.3774
-21.0925
7.81063
1.8857
-11.9515
-12.6321
7.98288
16.7726
-13.1311
-11.7632
8.1223
9.15246
-14.2122
-12.3605
-13.9515
-11.8159
8.93177
-26.1288
5.04368
9.13338
4.94972
-14.306
-26.0211
-11.9188
-19.8273
19.218
1.66558
-1.05496
1.72792
18.3888
-0.937002
-19.1807
19.4289
1.70775
-1.13662
-19.9999
-1.13722
19.7524
1.82147
-20.438
-20.9146
-18.1896
19.2761
-18.0752
-1.1114
-21.061
1.73372
-19.7074
-0.312777
2.14762
-19.9317
18.0972
2.07542
-18.6724
-0.404698
17.0024
18.6307
2.16301
-20.46
-0.333876
-20.4445
2.17104
-0.386635
18.6595
-20.1518
1.85373
17.9852
1.77333
-19.8491
-20.7772
2.18718
-0.372884
0.694174
-10.4142
13.2247
-10.8916
0.652365
13.8879
13.7796
-10.8023
0.628015
-3.52679
-10.7221
0.620822
13.6257
-2.92226
-10.0078
13.6239
-10.2659
-2.90238
-10.6341
0.610392
11.355
19.9988
-19.8904
-11.6958
20.9987
-20.9122
11.6085
-20.5476
20.607
11.5621
20.8448
-20.8117
11.6521
32.0847
-0.17129
-20.5581
-0.16307
20.5514
32.2832
11.5727
4.81896
1.66578
17.2657
2.00111
4.31617
15.621
-21.4188
1.91423
4.25747
15.2471
14.5851
1.97771
3.95212
20.3102
6.39468
6.51569
15.7955
19.0938
1.88557
4.19062
26.964
-11.0036
-14.4296
-1.534
-1.59974
26.4674
-10.618
-14.2508
-11.1342
27.4847
-14.8054
-1.54782
-14.3949
26.9774
-11.1372
-1.44573
12.585
25.5025
-11.1249
25.9475
-14.9634
12.5423
-1.43534
27.3547
12.7072
-12.5864
0.204439
-0.323747
-12.5643
0.223274
-0.295736
12.6385
0.00318873
-12.2034
0.0146258
12.182
-0.116228
-12.3923
0.053932
12.4547
12.4134
0.0814437
0.212762
0.058677
-0.209548
12.3399
-12.3756
12.402
-27.1662
11.2434
14.3064
1.61709
14.2428
-27.0741
11.1886
1.64224
1.6391
-27.8964
11.2421
15.0156
11.1071
-26.7794
14.0496
1.62258
-15.9707
-12.8462
1.65075
-12.9837
11.2558
-16.0621
14.3233
-27.4064
0.0323921
9.62673
8.76539
-18.4234
9.63603
10.1014
-19.7721
-19.5217
9.9455
9.48451
10.0421
9.57294
-19.6791
9.8036
9.14284
-18.9126
9.56754
9.87248
9.93699
9.24922
0.161988
-12.405
12.0357
12.5152
0.249706
-12.8234
-12.7839
0.226809
12.537
0.143219
0.188912
-12.8272
12.4951
0.306291
12.6237
-12.7685
12.7182
0.295594
12.4718
0.229808
4.20327
21.1403
-17.0651
-16.8489
3.98348
20.6339
20.5203
3.92949
-16.9366
-7.81913
4.03842
21.2413
-17.4559
-3.85819
-12.8849
20.9491
-12.8958
-3.69652
-17.0076
3.92887
2.43957
3.35554
9.25098
-15.0457
10.4149
3.50562
-15.7414
2.84469
9.31373
-14.5698
-15.9936
3.28164
10.5095
-13.6031
12.7803
3.25594
12.6497
-15.8384
-13.349
10.1344
0.645814
-8.92053
-7.0109
15.2829
15.4409
-8.86438
-7.24227
0.662331
-8.72968
-7.21066
0.62702
15.3125
-7.37954
-9.08635
0.63511
15.828
-6.62698
16.3241
-9.05511
15.9924
-7.17946
-6.63371
15.576
0.62844
23.0072
-8.17233
-9.13597
-5.69527
-8.34915
24.2198
-9.34141
-6.53003
-7.44196
-8.8166
25.1383
-8.88085
-7.75058
-8.51105
22.092
-5.83032
14.5915
14.0301
-5.61451
15.3477
-9.10522
15.0275
-8.74875
22.933
3.48287
-1.95516
-11.0329
9.50536
-10.796
4.2023
-2.87944
9.47846
-2.28217
3.19095
-10.1011
9.19311
9.71039
4.71363
-3.27037
-11.1519
13.3144
-7.26865
-2.56243
-7.14765
9.66692
13.3768
-10.9348
3.94788
-27.3499
10.9131
1.44336
14.9925
11.0305
1.41643
15.0376
1.3383
10.8016
14.3248
14.8082
10.6731
1.49669
-12.5027
-16.2999
1.45154
-16.36
14.887
-12.3331
10.8408
-5.09243
7.91845
-11.1492
8.32409
-11.8892
8.62925
-5.31582
8.576
8.62633
-5.34394
-11.8171
8.53424
8.41079
8.39071
-5.25191
-11.5508
3.14289
-16.7437
8.50783
-17.1986
8.4522
3.22103
-11.5538
-5.35119
17.2199
-9.42411
-2.90309
-4.89329
-4.9445
-9.45142
-2.92934
-3.057
-9.5394
-4.89683
-9.22773
-2.83616
-4.8833
7.89891
12.196
-2.8743
12.4717
-9.51913
7.9102
-4.94244
-23.4692
-0.00529163
-0.110588
23.5841
-0.136281
0.117505
22.8651
23.6431
0.182293
-0.150453
0.130848
-0.143808
23.2085
-23.2758
-23.4994
23.3049
-23.4883
0.0751068
-23.2952
-0.0740663
3.02488
10.2414
-9.34771
-3.91356
11.2567
2.1562
-9.90623
-3.49948
-4.81822
2.31089
10.966
-8.45593
-9.21616
1.84439
10.4325
-3.06839
-7.02141
13.7869
-3.73491
13.802
-9.56737
-6.22521
10.7845
2.75478
21.4447
-21.8885
-1.5347
-21.6399
21.3632
-1.74743
1.40106
19.6347
-19.6994
-1.33846
-1.04775
18.9491
-19.0847
19.734
-0.355333
-0.310367
-1.59332
19.1192
-20.5218
20.2097
4.91039
-14.1472
-3.44741
4.59702
-13.3607
12.4161
4.53705
-13.4502
-13.8895
4.77806
-9.12186
1.6518
1.16218
-13.7349
-8.98292
4.59406
-9.37156
19.442
6.60171
-16.6721
6.04667
18.7164
-14.5814
-10.183
18.5829
5.98934
-15.478
-9.096
-15.859
19.9199
6.50339
-10.567
-24.3256
-3.41888
18.3739
-3.46462
-14.8161
-25.383
6.1033
-10.2649
-22.5681
21.3322
-14.202
15.4389
21.6754
-22.5389
-14.5974
15.4592
15.6509
20.4365
-21.4165
-14.6713
-15.0306
20.855
-21.7679
15.9457
-38.2027
-0.813525
16.4492
-0.829836
-15.699
-36.7992
20.9555
-21.9782
1.3369
-2.59177
-19.163
20.4175
20.7719
-2.72494
-19.3571
1.30933
-2.65282
-17.8076
1.06115
19.399
-19.3831
-2.70777
1.24836
20.8422
-17.9675
22.0303
-2.72504
22.0166
-19.2118
-17.947
20.5948
1.4172
0.202412
0.311617
20.8195
20.1666
0.0521383
0.217362
-20.5096
0.0938142
20.1691
0.247489
0.00460373
20.6657
0.186258
0.323724
20.8364
20.4035
0.0883371
0.313595
20.5287
0.208112
11.8508
-2.47339
-5.44842
-2.48492
12.0772
-5.55234
-5.42971
-2.51626
11.9293
-3.85427
-2.3604
11.4781
-5.26433
7.93537
9.29534
-5.37914
9.37899
7.88886
-2.44836
11.838
3.70345
-2.09371
18.5661
-20.1783
-1.97168
3.75221
20.4227
-22.2065
-18.7701
3.12425
-1.39202
17.0391
17.1235
2.93244
-1.04076
-19.0166
22.5874
1.57145
-20.458
1.72997
18.8864
20.2327
-1.53837
3.19164
1.35939
9.57493
-5.23783
-5.4022
1.27005
10.0488
9.42179
1.34156
-5.06942
-5.36994
1.30561
8.96893
-4.90448
-4.37166
-3.83209
9.56265
-3.96764
-4.18298
-5.02022
1.27186
24.9737
-6.6458
-13.4374
-4.88804
-2.97791
-7.79009
22.9543
-12.1855
-13.392
-7.06383
24.5176
-4.06818
-8.88952
25.9986
-14.3468
-2.75909
16.7352
21.817
-13.5831
21.246
-7.49252
16.8681
-3.94226
24.7221
-8.31592
-9.53355
8.92956
9.08069
-9.62087
-8.31972
8.86126
9.63981
-10.152
-8.35256
-10.2478
-8.5714
9.73137
-18.2878
0.518414
9.45327
0.547202
-9.75415
-18.785
-8.59815
3.10559
-11.8537
-8.13339
16.8832
-12.7349
-8.44168
17.9093
3.26433
17.955
-12.7391
-8.47131
3.25376
-8.20122
-12.4776
17.5152
3.16434
-5.28373
-9.30631
17.6963
-9.53777
-8.48154
-5.19205
-12.3159
3.22529
20.1154
0.0374841
-0.155669
0.0591046
20.9255
0.0117799
-20.2809
20.1665
-0.0270749
0.139267
0.00360429
20.6849
-0.08096
20.3755
20.2912
20.367
0.067147
20.4046
-0.111153
20.4907
4.70333
-20.9821
4.42311
4.90501
-22.6334
4.98883
12.5697
-22.3134
4.83423
4.909
-22.176
4.82352
4.87512
-17.1973
9.586
9.73488
-22.0269
-17.4392
4.85013
4.86514
-0.146685
16.5334
-8.4678
-8.50487
17.4747
-8.95564
-9.57381
18.131
17.8689
-9.35022
17.8899
-8.39994
-9.63716
-8.4616
17.8467
17.9765
2.57249
-16.2767
6.69132
-16.5203
2.53088
6.77857
6.84956
-16.6362
2.54123
6.85495
-15.6676
2.37041
6.43923
9.71567
-13.9363
6.79219
-13.9844
9.59886
-16.6841
2.4634
-0.31394
-13.103
20.516
-7.10036
21.1113
-13.4023
-7.34568
-0.366483
-13.6574
21.3272
-7.32903
-0.341103
-7.19643
-13.7725
21.3331
-0.362057
-7.5116
20.4952
-13.2959
20.7046
-7.10341
-7.44054
20.7405
-0.392829
-6.77944
-6.6685
-9.09553
-8.72728
-6.38779
-6.30336
-6.7093
-8.57034
-6.4853
22.0932
-6.6245
-8.8585
-6.61378
15.4632
-15.6854
-6.56018
-15.2424
15.4482
-9.04202
-6.50294
14.5748
-14.9017
0.328605
-14.5891
0.385616
0.245192
-14.8448
0.00522362
-14.7236
0.0461595
14.6156
-0.241994
0.195971
0.0243837
15.4295
-15.6681
-19.4509
4.94182
-1.96517
4.86689
5.29401
16.0914
4.83563
-3.22106
-21.1256
4.89462
-22.3549
-3.14875
11.284
-9.17077
-10.2827
-10.2325
11.5922
-9.87191
-9.6007
11.948
-11.165
8.81854
12.9288
-10.3479
-11.3995
20.4485
1.42799
-10.5927
1.46776
19.4546
-9.20633
11.3213
-20.0999
20.1812
-0.0014153
-0.079011
20.3375
-20.0466
-0.28851
-0.00251168
0.00686444
-21.0583
21.143
-0.0908579
-0.0499286
-20.6536
20.7283
-0.0241397
-20.0744
0.0628371
-0.087235
0.0903008
0.173554
-20.5996
20.6137
-20.5024
23.6939
-1.68156
-23.7146
23.0107
-1.73675
-2.47409
24.5083
2.87069
21.1379
-1.9158
25.8378
-0.476994
-1.66776
-0.452461
25.326
22.3996
-9.60684
-0.272121
9.87837
9.50413
-0.237623
-0.0313666
9.53471
-0.0192063
0.0185045
10.4478
-9.36902
0.00997217
-0.246425
0.135406
-10.3602
10.3514
-20.6605
19.9612
1.80946
-1.11041
1.89856
19.6131
-20.5256
-0.987327
19.8959
1.73101
-20.4448
-1.1823
-1.14747
20.1359
1.91034
-20.8998
-21.8446
-18.8507
20.0341
-18.8151
-1.13116
-21.8484
1.85032
-20.7682
-10.6244
10.537
-0.184817
10.7591
-0.44214
0.0267363
10.3566
0.00550015
10.4182
-0.0598749
-10.5523
-0.00572123
-0.0655401
-0.0395163
-10.4114
10.4126
2.16214
-10.4921
10.4777
11.3308
-11.4798
2.31202
-2.2182
-10.8845
2.2435
10.8595
-11.4282
2.35418
11.2448
-9.24936
13.5982
13.8676
-11.7872
-9.2673
11.4369
2.3821
-2.15154
-6.28491
10.7512
-6.58719
9.8042
-1.37646
10.911
-7.06208
-1.69161
-2.00447
-6.527
10.7526
-2.2153
-4.37083
-8.43348
10.6543
-8.20661
-4.3228
-6.11528
-1.61799
-1.44151
0.728072
-18.352
-1.41462
1.09443
19.0843
-1.63327
0.935783
0.784546
-1.49309
-0.635442
-20.6558
-20.0028
1.01407
-0.595795
-1.51481
-2.70377
-10.9459
11.0575
2.72943
-11.4165
-2.6495
11.3355
11.8199
-11.84
-2.70559
-11.9252
-2.68453
11.9015
-14.8436
0.0656572
12.0738
0.0681065
-12.1826
-14.5846
-2.69637
-18.4091
-0.547759
19.1776
-0.222089
19.1829
-0.342343
-18.5825
-0.258853
0.0128218
-0.866685
18.9939
-18.1429
-0.672917
19.0083
-18.1181
-0.217851
-18.8719
0.726363
-0.264702
0.755812
-0.446205
-18.7137
18.7653
-17.9456
-7.15434
-13.9047
12.9223
-15.4171
-7.29992
14.275
8.08355
-7.04956
-14.508
13.4682
14.2841
-7.42236
-15.3349
7.08197
-22.7207
-22.3828
14.0453
6.93088
-15.369
-7.3698
27.0854
-21.8924
0.928041
-6.12112
-6.38628
-22.5002
0.98999
0.940606
-21.8532
-6.1615
-21.6939
0.963081
-6.04778
5.30589
20.8613
0.919146
21.209
-22.2894
5.25674
-6.08881
17.3818
12.7306
-8.97197
-21.1057
12.3361
17.6779
-8.9063
-9.73234
13.3661
17.0023
13.5623
17.5737
-9.89486
30.9676
-3.66462
-9.92104
-3.67725
13.5401
30.8484
17.4397
7.98043
-4.83404
-8.437
-4.82022
5.28362
-4.77693
-4.74715
3.13232
-0.503214
-0.505072
-4.79979
3.09278
-11.1829
-10.333
6.5599
-10.6772
-10.7832
-10.7227
-10.3896
15.293
-11.0215
-10.8981
4.6718
-4.42424
-11.4331
-4.43773
4.30489
-10.8561
-1.293
-17.5604
11.8034
12.5596
-18.5532
-1.42999
-18.4005
-1.40475
12.504
7.02475
-17.3166
-1.37754
11.6694
5.92402
10.5989
-17.8173
11.1136
5.8613
11.7622
-1.4259
0.00765754
0.111571
21.0212
0.0462167
-0.14355
-20.9502
0.0481374
-0.156642
-0.0356077
0.066797
-0.0135327
20.5116
21.046
-0.0398817
-0.0266578
0.0687497
9.45593
-0.24412
9.55782
-9.48943
9.71307
0.021887
10.5411
9.45378
10.1369
9.20953
10.3709
10.0911
-2.28825
-9.4477
-11.064
20.9877
-7.88376
-2.08425
-11.0197
-8.20741
-2.16582
-11.2319
-10.4661
-7.56822
-2.05209
-13.1596
18.9393
-8.06901
18.9796
-11.152
-12.733
-1.96055
-10.3126
-20.425
20.117
20.6192
-21.1835
-10.4401
11.1112
-21.4259
-10.4401
20.7543
-21.3511
-10.5071
20.72
-31.6487
10.208
10.1944
-21.2247
-31.7678
20.6211
-10.4624
-21.5552
21.1913
0.383295
-0.0246006
21.775
-0.127944
-21.5592
-0.0906771
0.0123355
20.9353
-0.074565
-20.8714
-0.0510581
21.2167
-21.1311
-0.0380539
-21.6623
0.0674272
0.0407058
0.0267102
0.0839241
-20.9637
20.9776
-20.9263
-13.6431
13.4352
-12.8952
12.6208
13.0631
-13.5841
-12.0965
15.0472
-14.4648
-13.9855
-14.1149
15.327
-14.9839
-27.1186
-1.01853
14.4961
-1.02623
-13.4727
-28.4291
-14.4083
-1.08506
7.71894
-7.50079
-7.6326
-0.789734
7.87454
0.562423
-0.753118
7.86042
-7.67022
7.99149
-0.530699
-7.80376
6.95292
-8.48574
-8.62969
7.94984
7.36324
-7.85846
-0.703912
-19.7851
19.8226
-0.0539076
0.015877
19.9469
0.0247342
0.0455143
-0.0376627
20.5364
0.00795719
-0.00631971
20.5413
-0.078471
-19.8049
0.0668093
-0.0480099
0.0327616
0.108092
-20.2513
20.3118
21.0186
-12.0327
8.20213
-17.1884
-12.561
20.913
8.66323
-17.0157
-16.8178
-11.5774
20.5033
7.89185
8.51182
-12.277
20.5481
-16.7827
29.7289
8.40019
-17.1105
8.45072
8.71722
29.1981
-12.286
20.8309
5.76106
19.4669
-21.8413
-3.38482
19.8959
-22.5258
5.85297
-3.22245
-3.27015
19.4668
-21.9553
5.75764
-22.4465
19.8801
5.86133
-3.29583
-16.4875
25.617
-3.36764
25.547
-22.1396
-16.4888
19.6594
5.78759
22.3183
-21.3066
-2.03573
1.02148
-2.0509
-20.42
21.506
0.9606
-21.1463
-2.12096
22.1897
1.07445
1.07211
-21.2254
-1.92795
22.082
23.3783
20.2282
-21.2951
20.0486
1.27606
23.2719
-1.97495
22.1741
-20.4133
-2.14119
21.5088
1.04599
21.7015
-20.6228
-2.09711
1.02263
-2.09385
-21.7053
22.625
1.16688
0.925674
-19.8904
-2.09438
21.0571
-19.4918
1.04349
-1.96627
1.06754
1.14212
-19.895
21.8627
-20.9205
-17.5139
-0.0060882
-0.0431495
17.2709
0.149503
-17.2295
-0.186587
-0.0512479
0.148556
-18.6504
0.207103
-17.3715
-0.149741
-17.2942
-0.116553
-0.102204
-0.118562
0.0974034
-17.7265
-17.8945
18.3867
11.3889
-22.0951
-7.68175
-21.9366
11.158
-7.95511
-8.84536
12.4004
-22.9634
12.4553
-22.5429
-8.90147
30.4437
-3.61044
-8.44706
-3.60054
12.1075
31.5488
-22.7038
-0.0417259
13.5472
-13.7924
-14.7313
14.5933
0.442261
14.3792
-14.509
14.3569
-14.3533
14.3879
-14.6833
-14.9516
14.6089
14.421
-14.7471
-2.28654
18.2316
7.06524
-22.7342
-2.35316
18.6035
6.48462
7.18669
-2.52293
19.8437
17.8051
-2.45882
5.79008
15.6152
-24.3953
6.49438
-25.5218
18.4019
15.8083
-2.5271
0.437249
-0.509318
22.2753
-22.2027
-0.368195
22.4084
-22.794
-22.8555
-0.487765
22.5527
22.6698
-0.492446
-22.7089
23.3066
0.161049
-23.0305
0.230678
22.7086
23.3287
-0.497913
-11.0266
-20.0862
20.2637
-20.4079
-11.4036
11.921
-21.1799
-11.6538
-21.0488
-11.5693
-31.5628
9.06614
9.09808
-20.3978
-32.5421
-11.5234
6.36236
-21.3496
8.71946
6.26819
6.4171
-21.5585
8.68289
6.45646
8.56049
-21.1643
6.31795
6.28636
-21.7015
8.66982
6.46931
6.56713
-15.409
13.0196
8.75265
13.1518
-22.1434
-15.2244
6.54376
6.48907
23.128
-12.7007
9.04024
9.27364
23.6452
-13.4523
-18.9033
23.1513
-12.2583
8.0096
-13.4405
23.7249
9.59374
10.0982
32.6885
32.2164
-12.8439
9.98605
9.26193
23.2986
29.3079
-5.49665
-13.5698
-12.0848
29.0243
-5.97421
-11.6816
31.1087
-4.29467
-15.135
-6.74859
28.0294
-10.8502
22.8034
17.2868
16.8483
-6.12999
24.6139
-14.0776
29.7801
21.3712
15.0415
-15.5928
-15.6218
14.6266
-20.9459
14.82
-15.2238
15.1342
-16.0267
36.1585
5.74132
5.58779
14.9491
37.5015
-16.6264
0.931629
21.3799
-3.15083
-19.1538
-3.26913
0.818379
22.6285
-20.1735
-18.5535
1.11326
20.7521
-3.3107
20.7416
0.982676
-3.16672
-18.5554
22.8427
-2.19694
-19.7108
-2.14333
21.7173
21.8387
-3.29466
1.14214
-0.222918
-6.78283
-2.3336
10.1972
-8.27215
0.477502
-2.40246
-1.8875
-7.10403
-0.142537
-7.19312
0.0391106
-1.73022
-7.55848
8.81883
-1.48441
9.43406
-6.79405
-7.47946
0.0663641
-6.4662
-1.65898
14.8754
-6.74669
-7.66777
-3.04819
18.1427
-7.42185
-3.74131
18.7766
-7.71957
-7.3125
18.1968
-3.43529
-7.69834
-7.0624
10.8404
-14.1661
-3.14077
-15.2696
18.4418
11.1072
-7.0763
-7.90308
-8.72206
-1.54126
10.2598
10.3572
-8.97221
-1.38262
-1.45549
-8.46323
9.92108
0.0294539
-8.61896
-1.63813
10.2287
-8.52354
1.55439
-1.75035
1.83507
-9.45876
11.044
-9.07851
5.459
-4.70207
21.555
-22.3139
-22.3347
-5.42796
21.9001
5.86532
-5.32367
22.0624
5.68254
-22.4211
22.1508
-6.04405
6.27324
-22.3802
27.7843
-16.7336
-5.59039
-16.7044
22.1544
27.824
-22.4067
5.79612
0.623378
-11.5673
3.23565
7.70745
-11.5606
0.645017
3.21923
7.69489
7.72966
-11.598
0.632395
3.23468
3.17139
-11.422
0.616311
7.62833
3.85527
-10.9226
7.69016
-10.9387
3.23295
3.84915
-11.6021
0.639444
10.1396
-8.25349
-1.88547
-1.786
-7.89026
9.67814
-8.10652
-1.67816
9.78391
0.0101573
-8.92954
-1.50337
10.424
9.91302
8.65599
-8.42764
8.1272
10.5549
-1.88815
10.5757
-9.34599
-16.7229
9.79169
9.72516
-17.505
-8.85686
16.2668
-17.0695
-8.92113
9.72612
-16.254
-8.53143
9.11554
-26.5957
0.565365
0.379436
-17.2499
-25.1482
9.46027
-8.50175
-0.112057
-13.7931
-14.5129
14.8506
-14.7
0.0387402
-15.2246
-0.313702
-15.1659
-14.825
-0.122997
-15.0028
21.5423
-0.999738
0.603197
-20.8985
-1.1479
0.622411
-1.05996
0.813452
0.630469
-1.08591
22.1577
0.536889
-1.15064
0.503858
0.756792
21.7808
-7.15929
-10.3279
7.27904
10.2065
7.34849
-9.94574
-7.37696
9.97366
-10.3364
-7.16126
7.26085
10.2356
10.1375
-10.24
-7.11181
7.21271
2.95455
0.180958
-10.2962
0.052045
10.2509
3.09384
7.22362
-7.19106
11.1425
-1.51627
-9.62636
-9.43102
-1.51528
-1.54536
-9.87173
-0.00833721
-1.64982
-10.1821
11.1005
1.64908
-1.60795
1.66896
12.059
-10.4186
2.75415
-19.9047
-1.0192
18.1687
19.0657
-20.9396
2.7343
-0.861447
-0.845056
-20.7063
2.68596
18.8659
-21.0437
2.6859
-0.86972
19.2263
-18.088
21.7062
-0.864729
21.7215
-20.744
-18.1932
18.8556
2.68315
-4.36986
9.52466
-6.81725
2.76128
-4.77902
10.0884
-8.07157
-8.61734
-5.41421
10.9855
10.8695
-5.2113
-9.09289
5.41154
-1.80558
-7.97666
-2.12429
10.2976
5.92303
-4.81934
9.84473
-3.96619
-4.20469
10.2522
-1.32801
10.0493
-4.12562
-4.15643
9.07627
-3.61342
5.44801
5.66797
5.83671
5.29591
-3.78485
9.80474
-1.71672
-9.16739
-8.82638
10.5892
-8.88171
-0.0178907
-9.64029
-1.73124
-11.7723
-10.5576
-1.76532
-10.0249
9.93266
5.91393
5.08985
-20.8982
5.81834
9.80536
5.27094
5.80244
9.93774
5.44867
5.19343
5.9341
10.0861
15.0255
-10.9466
5.85296
-11.0927
5.21914
15.224
9.93283
-19.1332
3.72341
5.08177
3.72806
-18.8202
5.14615
5.0346
3.70784
-18.9828
10.3282
3.7621
-19.18
5.08913
-8.79643
-15.4104
5.07309
-15.3648
-8.81178
3.72932
-19.1424
-11.5716
14.3455
10.1982
-12.9734
10.106
14.1566
-13.0208
-13.8419
14.9948
10.0906
14.9152
10.1255
-13.8529
3.93993
-1.0883
-14.4248
-1.15165
15.198
3.73775
10.0886
9.08069
3.47603
6.88561
-18.9374
3.33874
8.86761
6.7332
3.30149
8.80609
6.61018
6.98275
3.47976
9.45879
15.6509
-9.92696
3.35786
-9.95913
6.67363
15.4303
8.77269
0.319095
-14.1744
6.68886
7.16582
6.97849
0.264732
-15.1337
7.88959
8.76407
1.10389
-16.3008
6.43062
-16.1996
0.658577
6.77504
8.76468
-15.4004
7.33735
8.3824
7.41238
-15.8355
-15.4776
6.61349
0.698539
-3.10881
13.5939
-3.88363
13.0398
-3.69822
-3.35155
-6.4365
13.8178
-3.9554
-3.42228
-3.61068
13.5152
-3.39957
-6.82608
9.82194
9.98884
-3.77439
-6.78792
13.0013
-3.2344
-1.14098
0.0942873
-7.41037
-7.30698
-0.193714
-0.371112
-7.78204
8.75619
-0.493723
-7.28085
7.52658
-8.53007
-0.13045
-8.85878
8.08776
-7.8608
-7.08601
-24.2507
8.17576
-21.959
-5.9154
19.4863
-21.1485
-6.2213
-20.7349
-5.9181
-29.2856
1.67735
1.60653
-22.7161
-27.1264
-6.03336
-19.6751
-6.58159
-7.29939
-20.3579
17.0164
-20.0356
-6.60241
9.62362
-19.5425
-7.14861
-10.0953
-26.8283
-27.1486
-10.0711
-7.13347
-20.2029
11.6522
-0.263243
-0.378614
-11.1841
-0.520669
-0.0175171
-0.336322
11.8963
11.8631
11.5176
12.1974
-0.352134
1.90488
-18.4456
-0.702281
17.2429
17.3746
-18.5232
-0.685077
1.83371
-18.647
-0.626907
1.83182
17.441
-0.658583
-18.5089
1.8193
17.3463
1.26267
19.6307
-18.9889
19.2921
-0.655145
1.22479
17.7463
1.86982
-3.3815
-9.57349
4.43311
-9.13096
-10.1547
9.30347
-10.6327
5.2274
1.26044
-9.86899
1.23296
4.97388
26.5397
-17.916
-11.1622
2.5411
-11.2101
-17.2117
26.042
2.38347
2.10383
-15.36
24.078
-10.8199
-16.8298
26.1797
-11.8133
2.45994
9.09039
14.8702
2.57883
14.1048
-16.2215
9.19501
-11.1542
25.4039
-0.000882445
7.22588
-17.2405
10.0145
-17.5099
0.0141292
7.3113
10.183
7.31839
0.0450496
-17.5148
10.1512
10.1093
0.00616111
7.22777
-17.3442
10.1205
-17.3331
7.2109
-17.479
10.0894
10.2027
-17.427
0.0419438
25.4087
-0.0120068
-25.1492
-0.248073
-0.0443204
0.0714634
-25.9921
-25.6735
0.121785
-0.0802589
0.0922115
-25.7995
-0.0792728
25.7122
25.5512
-25.8549
25.5876
0.0804101
25.72
-0.0768025
1.69448
-0.937872
20.5158
-0.843685
-21.2075
-0.890412
-0.828404
0.869044
22.9814
22.2376
-0.851691
0.858067
1.48607
-0.728012
22.2053
-0.954181
-22.5745
-0.672814
-0.776209
0.647532
22.5577
23.4643
-0.610394
0.86058
-7.65418
-8.45612
5.66976
5.83074
-8.60094
-7.67082
10.3088
-8.32072
-7.51108
5.52431
-8.62762
-7.69671
5.81771
-16.2813
-1.83528
-1.82353
-8.62658
-16.2033
5.74059
-7.71805
-8.97352
1.13703
-0.316869
8.15405
1.34421
-9.04234
-0.558108
8.25087
-0.413357
1.2321
-9.04296
8.22201
8.06769
1.25057
-9.01555
-0.307431
-0.85846
-7.73909
-0.379933
-7.69872
8.17825
-0.887608
1.21375
-8.9991
-15.8516
16.2336
16.1092
-16.2378
-0.0954632
-15.4878
15.5836
-0.027461
-16.2887
16.2437
-15.7596
-0.00622181
0.3503
-16.8579
16.8237
-16.6026
0.0885684
19.8537
-17.865
-2.07727
-1.8497
18.7891
-17.0419
0.102375
18.4664
-16.6889
0.114817
-1.89244
-16.7549
18.5739
0.108091
-1.92676
-17.0165
-1.73564
18.8408
-1.7771
-17.0893
-16.5718
-1.91863
0.117532
11.4822
9.59631
-27.5347
6.45599
-27.6234
9.60789
6.44771
6.51846
9.67794
-27.7955
9.50906
-27.4351
6.50262
21.1091
-16.097
6.46916
-16.1255
9.61058
21.2091
-27.7981
-1.54929
0.804153
-19.6692
-1.51964
1.28416
20.349
-1.64455
0.907635
0.876144
-1.68009
-0.680038
-21.6134
-21.3466
0.997023
-0.703433
-1.70093
-10.095
3.56066
7.17806
-0.611353
3.5133
7.06421
7.19191
3.59643
3.55885
7.12636
-6.52466
-10.7217
7.15013
-10.6983
3.56184
-6.52452
8.15866
-9.15792
1.05744
-9.37781
-9.60373
0.00397183
-9.69086
8.47659
9.84215
-10.159
9.53446
8.69585
21.0223
-9.80421
2.57219
-13.7884
-13.7509
-9.70496
2.58734
2.51962
-9.74036
-14.3401
-9.79216
2.61755
-13.9566
11.2022
7.18738
2.63267
7.1501
-9.70048
11.2566
-13.8628
-0.016578
-20.7386
3.83364
16.922
-20.2109
3.86395
0.0241656
16.3217
16.3272
-20.2493
3.91266
0.00413731
3.94414
-20.5474
-0.0248482
16.6255
3.86876
-20.693
16.8063
-20.2655
3.92152
3.94774
-20.6981
0.00827856
11.8978
4.26259
-16.1607
3.92287
-15.956
-15.6476
4.07013
-0.00932987
4.40913
-16.6766
11.7304
16.8454
-16.6786
15.6532
12.2804
4.55576
-6.46863
4.1644
-18.3885
20.6907
-18.5046
4.18839
-6.6259
20.941
4.00067
-6.32875
-17.2108
19.5373
20.8231
4.23102
-6.52652
-18.5304
14.3176
-24.9926
4.20397
-24.716
20.5278
14.2274
-18.3979
-6.48879
-2.17859
-7.56006
-11.4083
-11.6217
-7.6455
-2.69174
-9.16017
-12.1802
-2.90883
23.3137
-8.4571
-12.2381
-2.61719
19.5305
-14.1171
-7.59104
-14.8065
21.2983
-12.101
-2.66736
9.73099
-10.7226
-14.4969
-10.8393
-15.1391
16.3383
-10.5134
-15.6277
-15.5029
-10.4899
-6.04897
-0.823527
-0.817441
-16.0707
-5.82039
-10.5061
-3.92697
-15.8939
-15.3937
-3.66404
8.71544
-15.429
-3.79697
10.3481
-15.4648
-3.74318
6.7583
-19.7264
-19.141
6.65981
-16.0393
-3.76522
-16.2275
5.76638
-4.89515
5.47305
-4.61208
14.2189
5.49717
-4.84123
-4.87749
5.80865
-21.5305
-10.9179
-11.0414
-5.01654
-21.6193
5.82261
-7.36399
10.4929
-9.07019
5.94053
6.11845
9.71535
-8.71638
-7.11829
-9.50947
10.5068
-6.9519
5.95454
10.4809
-9.48572
-6.86592
5.86864
3.75699
-0.982226
-10.1396
-0.989191
10.8642
3.51762
5.97893
-6.98138
15.0372
0.909277
-0.93025
-15.1212
0.817929
-0.613194
14.9174
0.976674
-0.774548
14.1059
-0.728913
0.846471
13.9326
14.1514
-0.199201
1.08548
-0.214215
-0.755588
13.3954
14.1585
-29.5494
27.5035
10.1987
-8.15102
29.2001
10.8453
-8.93725
-8.43173
28.1257
9.3288
9.89441
26.2965
-8.16419
-19.3847
-1.32718
-8.83792
-1.24099
11.0561
-20.1074
28.6731
2.6102
-22.9293
18.364
2.36855
-21.5011
16.8102
2.32357
-23.5352
18.1166
2.54179
18.4449
-24.0999
2.38675
20.6192
4.93924
-22.9471
5.22466
17.7648
20.8228
2.51293
21.3701
-13.3605
12.508
-15.0142
14.0287
-20.2891
-13.2974
12.6034
13.9534
-15.2532
35.269
6.84085
6.83874
13.4162
35.4772
-14.6839
20.2826
0.680659
-0.426941
-20.3521
0.567605
20.1989
-0.416382
0.601917
19.5645
-0.343596
-0.414961
0.68267
20.2735
19.8106
-0.214788
0.68648
-0.168033
-0.373534
19.6824
20.1165
5.91818
-7.56875
3.10642
-1.45086
-2.20543
-7.41917
3.34345
2.99105
-8.52668
-1.52426
-7.03838
2.64429
-2.13067
-1.08958
4.06626
2.94168
4.02368
-7.3177
-0.899444
-2.0705
16.1118
-0.942371
1.38692
-16.5725
16.0699
-0.890588
1.39272
1.34759
16.4559
-0.885991
-0.804889
16.244
1.418
15.2312
-0.478798
1.36068
-0.483381
-0.856737
15.233
16.0974
16.548
8.17602
-1.07884
-23.4315
8.12789
16.3877
-1.08413
8.10998
15.9093
-0.8675
-1.06249
8.18729
16.6
15.3946
-6.96008
8.11246
-7.00052
-1.03648
15.2759
16.386
22.417
-13.4263
13.4475
-22.4389
13.8774
-14.1104
-23.1048
23.3377
-22.6213
-13.101
13.4863
22.2354
-13.9211
13.9056
-22.9815
22.996
8.93175
36.5038
-23.0202
36.6083
-13.7996
8.91729
13.6654
22.9042
14.3328
-11.0576
10.0641
-13.0957
-10.7907
9.94221
13.9419
9.8942
-10.7386
13.3085
-11.3551
10.6192
14.0776
2.70774
0.884989
10.7384
0.861291
-11.2496
2.98602
13.7407
3.66051
-17.2903
3.21524
3.31484
3.74408
-17.8626
10.6435
3.63206
-17.5206
3.24578
-17.7117
3.66825
3.32023
-13.9649
6.99111
6.9945
-17.6412
-13.9876
3.26782
3.65082
6.55268
5.28992
-11.8474
6.41926
-14.0228
-12.9557
6.15264
0.0176364
7.19994
-14.9695
6.81302
13.1627
-13.4299
13.2299
7.07109
6.10516
0.178528
-13.6049
13.414
-13.8392
0.425238
-13.3476
0.246037
0.0581323
-14.3968
0.22789
-0.156992
14.1481
-13.8142
13.2564
0.405488
0.314473
-10.443
23.2695
14.677
21.8423
14.258
15.4891
23.3878
-28.1359
23.4286
15.4582
-37.9409
12.4884
15.007
12.5742
-38.7175
23.0695
-1.56114
4.71902
-2.55022
4.80047
-1.61644
4.71595
-1.51373
-0.615722
4.44009
-1.45446
-2.21691
-4.02275
4.67811
-4.13887
-2.17523
-1.59816
20.8191
-20.5678
-0.0350018
-0.215568
-20.7328
-0.243311
0.235789
-0.0248808
-20.2375
0.00871601
0.000535816
-20.534
-0.0162026
20.7858
0.00182717
0.0300629
0.0543411
-0.00216822
20.6687
-20.6687
-5.30091
-1.27417
19.6599
-13.0871
-1.27936
19.5409
-5.17026
-13.0923
-13.0529
-1.20887
19.3553
-5.09399
19.665
-1.26585
-5.15234
-13.2503
14.5551
-6.47587
-13.3811
-6.48503
19.7601
14.3918
-1.20365
-5.1462
21.1567
-6.52147
-25.0672
10.4327
-7.57417
22.1958
-25.4558
10.8355
-24.3331
21.1148
-6.25443
9.47295
10.7573
22.8849
-7.75213
-25.8887
32.1979
14.1252
-25.1656
13.9569
10.667
32.2945
-7.41193
21.9186
-4.54265
-12.9941
7.28011
10.2571
7.37299
-12.5887
9.63837
11.3355
-14.1627
7.66211
-14.0479
7.63739
11.2341
-18.1496
2.75233
10.8541
2.73263
-13.5089
-18.9183
7.6229
25.9662
-14.4378
10.0893
-21.6173
10.9894
25.3565
-15.1751
-21.169
-21.8423
26.5329
-14.7265
10.036
-15.3924
25.9339
10.7048
-21.2449
10.7538
36.954
-21.741
37.755
-16.0103
10.7639
10.7983
26.6765
-1.22397
-11.5426
12.7655
-11.1624
12.3184
12.7625
-11.5054
-0.00578213
-12.241
13.2289
-1.59117
-13.617
13.9816
-12.7556
-1.45269
-12.1711
-13.3642
-10.8975
9.6819
13.0602
-9.33306
-13.1107
9.38509
-11.8418
-17.6439
12.8142
11.4176
-11.8627
-15.034
-2.32411
0.445134
-11.4893
0.463
10.274
-2.95326
-14.331
-11.5492
9.48965
8.21885
-6.15957
-6.36431
9.62979
8.29623
8.26422
9.39727
-6.05392
9.70169
8.36394
-6.41336
-1.92236
-17.9743
8.34826
-17.9366
9.64999
-1.90035
-6.37246
-12.616
-0.513777
0.522539
12.6059
0.126808
-0.177005
12.5912
-12.5412
12.6524
-0.141183
0.0627291
-12.5748
-0.106947
0.078281
12.7589
-12.73
-12.7393
-12.5328
12.6561
-12.5707
-0.0431615
-12.8003
0.160312
-12.7189
23.0479
-15.9895
15.4543
-22.5144