/*--------------------------------*- C++ -*----------------------------------*\
  =========                 |
  \\      /  F ield         | OpenFOAM: The Open Source CFD Toolbox
   \\    /   O peration     | Website:  https://openfoam.org
    \\  /    A nd           | Version:  12
     \\/     M anipulation  |
\*---------------------------------------------------------------------------*/
FoamFile
{
    format      ascii;
    class       volVectorField;
    location    "50";
    object      U;
}
// * * * * * * * * * * * * * * * * * * * * * * * * * * * * * * * * * * * * * //

dimensions      [0 1 -1 0 0 0 0];

internalField   nonuniform List<vector> 
44296
(
(0.00387887 0.107355 -9.38716)
(-0.00604098 0.236711 -9.32252)
(0.00400429 0.113812 -9.84267)
(0.00576574 0.0669353 -10.0408)
(0.0354143 0.101682 -9.22329)
(0.00111507 0.203292 -9.61225)
(0.0312861 0.11535 -9.85794)
(0.0139345 0.119508 -9.90391)
(0.0147587 -0.0807904 -10.0392)
(0.0783764 0.0474083 -10.302)
(0.0302086 0.0166269 -10.2463)
(0.023841 0.0129631 -10.2596)
(0.0494524 0.0297012 -10.1508)
(0.0203628 0.0262936 -10.1658)
(0.0464633 0.0163662 -10.2678)
(0.0471146 0.00439716 -10.2833)
(-0.0263668 0.754821 -7.27669)
(0.0945404 0.656739 -8.95051)
(0.0302689 0.443692 -8.05817)
(0.0556194 0.377066 -9.18821)
(-0.00373399 0.521564 -8.91425)
(0.0294311 0.521039 -7.91082)
(0.0216887 0.582363 -8.79459)
(-0.00303454 0.55693 -8.8663)
(-0.0058761 0.106687 -9.76414)
(0.0116401 0.0480824 -10.2156)
(0.012241 0.142596 -10.0489)
(0.0117247 0.0214912 -9.83113)
(0.0132638 0.077091 -9.73506)
(0.0138861 0.10021 -9.87719)
(0.00989738 0.0821195 -9.74871)
(0.0131653 0.115546 -10.03)
(0.0128132 -0.0272617 -9.60199)
(0.020155 0.0938676 -9.80554)
(0.000579321 0.130176 -9.30191)
(0.00367066 0.0316117 -10.2285)
(-1.37976e-05 0.030528 -9.61904)
(0.010314 0.0596298 -9.68613)
(0.0201879 0.0106344 -9.58488)
(0.0104398 0.109012 -9.65499)
(0.00490805 0.00653493 -10.2584)
(0.0028727 -0.010252 -10.5769)
(0.00423341 0.0499337 -10.4171)
(0.00304377 0.0155845 -10.2087)
(0.00336918 -0.000559739 -10.2579)
(0.00887719 0.0300727 -10.2741)
(0.0136767 0.0215499 -10.1925)
(0.00295213 0.0834505 -10.3851)
(0.0380778 0.076907 -10.039)
(0.0229729 0.126735 -9.86928)
(0.0287379 0.180832 -9.25208)
(0.0109754 -0.0148724 -10.103)
(0.0183714 0.0145673 -9.98539)
(0.0158242 0.116269 -9.81397)
(0.016083 0.0220331 -10.0305)
(0.0219775 0.131631 -9.80852)
(-0.0581449 -0.0942251 -10.4535)
(0.0396417 -0.0114292 -10.1402)
(0.0238589 0.0249193 -10.2779)
(0.0228079 -0.0426894 -10.1477)
(0.0173879 -0.0237705 -10.071)
(0.0320658 -0.0278841 -10.096)
(0.018894 -0.0391216 -10.1022)
(0.0447146 0.0184074 -10.1865)
(0.00375947 0.0323568 -10.0257)
(0.00940316 0.0168979 -10.1462)
(-0.000733056 0.0338752 -10.0019)
(0.0053922 0.0354609 -10.0887)
(0.00844322 0.0250977 -10.0075)
(0.00121163 0.0131021 -10.0186)
(0.00209646 0.0371976 -10.0243)
(0.00433218 0.0368794 -10.0075)
(0.0669563 -0.0293079 -10.9343)
(0.0291914 0.117358 -10.6692)
(0.0185042 0.0337008 -10.8138)
(0.0444392 0.0282086 -10.6122)
(0.192572 0.0330699 -10.7397)
(0.0218726 0.0844532 -10.7656)
(0.0293196 0.0761786 -10.6606)
(0.0678673 0.0593247 -10.6783)
(-0.0645743 0.102034 -9.93322)
(-0.0277568 -0.0865462 -10.4503)
(0.0459416 -0.00417163 -10.8361)
(0.0285832 0.0467023 -10.7608)
(0.047709 -0.0759449 -10.6969)
(0.047485 0.00631423 -10.703)
(-0.0049718 -0.0125333 -10.7407)
(0.0314298 -0.0416695 -10.747)
(-0.0129081 -0.135357 -11.1137)
(0.0451943 0.129697 -10.3075)
(0.0393057 0.108214 -10.0324)
(0.0357125 0.0269049 -10.5408)
(-0.00415349 0.000351933 -10.974)
(0.0132046 0.152969 -10.3774)
(0.0111764 0.0159937 -10.4604)
(0.0448442 0.159608 -10.3738)
(0.00533888 -0.0844383 -11.0976)
(-0.0516427 -0.0841207 -11.0954)
(-0.017394 0.259322 -10.4123)
(0.0113001 0.285679 -9.70341)
(0.0464369 -0.172279 -11.07)
(-0.00402878 -0.106969 -11.05)
(0.0333166 0.269673 -10.1078)
(0.0441853 0.207185 -10.3106)
(0.0739045 -0.0613425 -9.91419)
(0.0334742 0.0187442 -10.1126)
(0.047426 0.0162064 -10.227)
(0.0139961 0.0218009 -9.78928)
(0.0190889 -0.0599053 -9.86715)
(0.0458179 -0.0304735 -10.1198)
(0.0171376 -0.0654187 -9.91579)
(0.0254345 -0.0236403 -10.0101)
(0.0350203 -0.0398879 -9.965)
(0.0294447 0.00706677 -10.1693)
(0.0213241 0.0202702 -10.1276)
(0.0255419 0.0397293 -10.3038)
(0.0555744 -0.0356567 -10.0705)
(0.0432643 -0.0409461 -10.1277)
(0.0236691 0.0364191 -10.1394)
(0.0371623 0.0695904 -10.1378)
(0.0253402 -0.186338 -10.6958)
(0.0508473 -0.0827576 -9.8821)
(0.0356175 0.0456979 -10.4593)
(0.0408999 -0.0929057 -10.519)
(0.00133678 -0.0778257 -10.6139)
(0.0201962 -0.0674012 -10.6128)
(0.0095172 -0.0766149 -10.5719)
(0.0519749 -0.0102081 -10.4826)
(-0.00932668 0.0150272 -9.45016)
(0.00360985 -0.202086 -9.51795)
(0.00656721 0.0138271 -10.0137)
(0.00480508 0.00816085 -9.65409)
(0.0228482 -0.194059 -9.96936)
(-0.00557279 -0.169094 -9.81355)
(-0.0029128 -0.0861574 -9.84608)
(0.0126056 -0.0171117 -9.74859)
(0.00127559 -0.0543853 -9.69105)
(-0.0105411 -0.0676873 -9.42044)
(-0.0170343 -0.0922423 -9.80394)
(0.0119567 -0.0156359 -9.99353)
(0.00689971 -0.0845035 -9.72265)
(0.0130436 -0.0594285 -9.64243)
(-0.000620387 -0.0987384 -9.75414)
(0.0104291 -0.109101 -9.72363)
(-0.0513307 -0.0393424 -9.74255)
(0.0233423 0.0776036 -9.29224)
(0.00715826 -0.0464536 -10.0182)
(0.00291409 -0.0441058 -10.0084)
(0.00547143 -0.0801606 -9.91419)
(-0.00441182 -0.0711057 -9.55322)
(-0.00686124 -0.0701697 -9.99682)
(0.0191717 -0.0832716 -9.99152)
(0.00303144 0.0165013 -9.83578)
(0.0329416 -0.01822 -10.1748)
(0.0340395 -0.0410538 -10.0207)
(0.0209251 -0.0250399 -9.97323)
(0.0184427 -0.00382145 -10.0114)
(0.0106754 -0.0219183 -10.0725)
(0.0106732 -0.00118237 -9.94645)
(0.0398179 -0.0545482 -10.1079)
(0.0282086 -0.112299 -9.87579)
(0.01921 0.0462273 -10.409)
(0.0160094 0.0120703 -10.2169)
(0.0167284 0.0760168 -10.3878)
(0.0160535 -0.029508 -10.1802)
(0.0155446 0.00439434 -10.2006)
(0.0118311 0.0247752 -10.2442)
(0.0176434 0.00360103 -10.2803)
(-0.0468047 -0.231364 -11.3315)
(0.0357041 0.171021 -10.2718)
(0.0370591 0.213626 -10.0356)
(0.0406205 0.243776 -9.66319)
(0.0170464 0.170717 -10.5474)
(0.0292299 0.202248 -10.4868)
(0.0345646 0.217769 -9.81371)
(0.0521845 0.257281 -10.1367)
(0.00959422 0.00589523 -10.1675)
(0.0124692 -0.122209 -9.9702)
(0.0207226 -0.00990352 -10.414)
(0.00615171 0.0770125 -10.2181)
(0.0252632 0.0723955 -10.2106)
(0.0815441 -0.0569206 -10.4231)
(0.0519956 0.0914655 -10.1393)
(0.0274076 -0.0351211 -10.3507)
(-0.0156466 -0.207849 -11.2678)
(-0.0235012 -0.235706 -11.2772)
(0.0161832 0.0630678 -10.6402)
(0.0105332 -0.00612827 -10.8987)
(-0.015664 -0.199617 -11.2653)
(-0.00780428 -0.119118 -11.1964)
(0.00465188 -0.0684311 -10.9639)
(0.000805391 -0.0310307 -10.8724)
(-0.00362991 0.0293499 -10.3636)
(0.0114156 0.045064 -10.2914)
(0.0134125 -0.0327898 -10.7018)
(0.021786 0.037446 -10.1729)
(0.0219462 0.0274022 -10.3877)
(0.00329351 0.0259957 -10.4078)
(0.00667244 -0.00625926 -10.3609)
(-0.00107644 0.0154576 -10.5333)
(0.0651081 0.229228 -9.80731)
(0.058611 0.0552815 -10.5293)
(0.0406783 0.0635987 -10.3906)
(0.0350982 0.16715 -10.4539)
(0.0575988 0.207934 -9.90784)
(0.0619049 0.0904831 -10.3403)
(0.0441604 0.0614474 -10.2521)
(0.057495 0.0572723 -10.2866)
(-0.00883605 -0.0280316 -10.2626)
(0.0414641 0.00374554 -10.3506)
(0.0259407 0.0328336 -10.3186)
(0.0308818 -0.023829 -10.3241)
(0.045483 -0.0355633 -10.3047)
(0.0239721 -0.0127189 -10.3294)
(0.0260717 -0.0276925 -10.2969)
(0.0562043 0.00550382 -10.362)
(0.0415737 -0.193837 -10.8801)
(0.0421465 -0.030787 -10.4662)
(0.0176405 0.0514747 -10.6032)
(0.0325146 -0.00257963 -10.9135)
(0.0351833 -0.084281 -10.6419)
(0.0108638 -0.0701282 -10.6151)
(0.0496016 -0.00912911 -10.7186)
(0.0263604 0.0517155 -10.5914)
(-0.106384 -0.0378072 -10.9284)
(0.0205544 0.0979362 -10.7685)
(-0.0411197 -0.11362 -10.5015)
(0.0139576 -0.0239812 -10.9693)
(0.0432151 -0.0277376 -11.0204)
(0.0169619 0.00698069 -10.9028)
(-0.0276865 -0.0608462 -11.0263)
(-0.00318365 -0.0870373 -10.871)
(0.00481029 -0.228585 -10.234)
(0.095413 -0.146145 -10.4616)
(0.0386474 -0.128933 -10.2455)
(0.0435778 -0.134316 -10.5908)
(0.0673774 -0.161099 -10.5941)
(0.023335 -0.167463 -10.3477)
(0.00867901 -0.14955 -10.5486)
(0.0404073 -0.158521 -10.3625)
(0.0835366 0.562393 -9.35116)
(-0.0587203 0.726159 -9.27485)
(0.0844932 0.352345 -9.54465)
(0.120398 0.230949 -8.77133)
(0.0923147 0.525342 -7.80707)
(0.0794211 0.512778 -9.1454)
(0.257476 0.27578 -8.55923)
(0.0707863 0.417674 -8.66075)
(0.0623045 -0.227168 -10.4573)
(0.00431893 0.0297841 -10.6288)
(0.0289458 -0.241458 -9.42274)
(0.00956472 0.171029 -11.1503)
(0.0199144 -0.172421 -10.6563)
(0.00825215 -0.141424 -10.5651)
(0.0159642 -0.188198 -10.7021)
(0.00345811 -0.1283 -10.663)
(0.0114914 -0.000490684 -10.3407)
(0.0161929 -0.0090461 -10.3667)
(0.00124339 -0.0785755 -10.0894)
(0.0205886 0.104267 -10.1523)
(0.0279851 -0.010999 -10.3665)
(0.0152463 -0.0240985 -10.4359)
(0.0227408 -0.0486289 -10.2313)
(0.0177151 -0.0430429 -10.3226)
(-0.0121837 -0.117342 -9.80357)
(0.0303967 0.0142387 -10.2868)
(0.0232004 -0.0119655 -10.2542)
(0.0252639 -0.0235406 -10.0838)
(0.0107878 0.0653185 -10.0059)
(0.0175447 0.039205 -10.2002)
(0.0147133 -0.00721981 -9.98967)
(0.0280737 -0.00572495 -10.3168)
(0.0175285 0.0630871 -10.4418)
(0.0120796 0.0203111 -10.4514)
(-0.00232631 0.0784265 -10.5271)
(0.0315982 0.0174548 -10.2491)
(0.0216611 0.00836188 -10.3088)
(0.0126774 0.0576158 -10.4682)
(0.0101624 0.0154179 -10.3375)
(-0.000186136 0.0541102 -10.4519)
(0.0489385 -0.0579844 -10.5309)
(0.0119678 0.0245997 -10.2622)
(-0.03386 0.0505594 -10.6797)
(0.00475029 0.0525701 -10.4275)
(0.00242583 0.0404994 -10.49)
(0.00616578 0.0468672 -10.495)
(0.00288208 0.0272672 -10.507)
(0.0072309 0.0367711 -10.5259)
(-0.342641 -0.437756 -11.8811)
(0.155791 -0.79554 -11.4924)
(0.0135649 0.296395 -11.4499)
(0.161785 -0.657967 -10.6154)
(0.189346 -0.644192 -11.5652)
(-0.108739 -0.299894 -11.7609)
(-0.100006 -0.521657 -11.5169)
(-0.101832 -0.316782 -11.5005)
(-0.0134618 -0.0190875 -11.0938)
(0.00193942 -0.0609647 -10.9101)
(0.0298266 0.144413 -10.0464)
(0.0162657 0.20827 -9.71764)
(0.0136422 -0.0355332 -11.0857)
(0.0626983 -0.0467936 -10.9813)
(0.0218915 0.177529 -10.3684)
(0.0157443 0.196146 -10.2864)
(0.0335608 0.0691232 -11.1149)
(0.0532437 0.0882488 -10.5964)
(0.0247449 0.164403 -10.7724)
(0.0429469 0.0191147 -10.9093)
(0.068791 -0.0549107 -10.9871)
(0.0201568 0.107498 -10.847)
(0.0238202 0.0503981 -10.889)
(0.0335195 0.123286 -10.7323)
(0.141421 -0.0571997 -9.18766)
(0.00425491 0.202527 -8.90617)
(0.0572282 -0.0520369 -8.69488)
(0.0179574 0.108281 -9.48993)
(0.0341203 0.181736 -8.66418)
(0.0740226 0.225574 -8.73283)
(0.0610088 0.0781607 -8.90911)
(0.00951092 0.00544915 -9.13802)
(-0.0179045 -0.134228 -10.6509)
(-0.0217389 -0.0337023 -10.7405)
(0.0058359 -0.0499801 -10.2394)
(0.00819993 0.00418155 -10.4638)
(0.00805053 -0.0401527 -10.9103)
(0.00618925 -0.0439568 -10.8857)
(0.0186815 -0.0595587 -10.4506)
(0.0170366 -0.0708471 -10.4537)
(-0.0269287 0.121437 -9.80034)
(0.0158812 0.0766933 -10.0107)
(-0.0217803 0.0418745 -9.19125)
(0.000113368 0.0570391 -10.003)
(0.00942118 0.0813506 -9.94718)
(-0.00557667 0.109674 -9.90808)
(-0.000708261 0.0919724 -9.92001)
(0.00217111 0.123608 -9.91372)
(0.011146 -0.0573419 -10.6502)
(0.0550601 -0.0262634 -10.1691)
(0.0647631 0.0065515 -10.1502)
(0.0474799 0.0251546 -10.4207)
(0.0394148 -0.0763956 -10.4597)
(0.0419167 -0.00391979 -10.1642)
(0.0510437 -0.0516005 -10.4006)
(0.0627198 -0.0472027 -10.267)
(0.0239118 0.0330148 -10.3693)
(0.0412402 0.0693893 -10.6074)
(0.0303987 -0.017571 -10.3422)
(0.0290388 0.0438445 -10.0486)
(0.0224968 0.020014 -10.2791)
(0.0387268 0.0663854 -10.4011)
(0.0351837 0.00625047 -10.2404)
(0.0239333 0.0372948 -10.31)
(0.0631117 -0.132772 -9.95723)
(0.029479 0.0542249 -10.998)
(0.0108813 0.243428 -9.14727)
(0.0467396 0.358787 -9.28067)
(0.0936819 -0.0996813 -10.1378)
(0.0671698 0.0888733 -10.2402)
(0.0550087 0.1748 -9.1808)
(0.0310216 0.228693 -9.41689)
(0.0958559 0.177422 -9.97992)
(0.0559361 0.0526161 -10.4865)
(0.0523577 0.189249 -9.68676)
(0.052824 0.172733 -9.31427)
(0.053388 0.115563 -9.844)
(0.0696509 0.128624 -10.0376)
(0.0633531 0.174862 -9.43167)
(0.0321455 0.112753 -9.78306)
(0.0573754 -0.853253 -11.0347)
(0.0265395 0.105185 -9.88616)
(0.0104415 -0.305727 -10.7843)
(-0.0456194 0.43295 -11.1875)
(-0.0219546 -0.0334821 -10.6834)
(0.00424578 -0.31293 -10.7364)
(0.0182986 -0.314889 -10.8771)
(0.0131902 -0.254552 -10.7527)
(0.0445178 -0.313594 -10.1873)
(-0.0610986 -0.156064 -10.5472)
(0.0118494 -0.0359818 -10.708)
(0.025045 -0.132995 -10.863)
(-0.00399964 -0.137595 -10.4777)
(0.0228164 -0.245392 -10.475)
(0.00888571 -0.135718 -10.7766)
(0.046172 -0.147467 -10.7769)
(0.0191482 -0.012057 -9.36416)
(0.0418197 -0.0568779 -9.96482)
(0.0323481 -0.0780365 -9.93814)
(0.0495063 -0.0884729 -9.74683)
(0.0468773 -0.0120264 -9.8583)
(0.0290246 -0.0409514 -9.99807)
(0.0330729 -0.0400458 -9.7636)
(0.0711922 -0.0741701 -10.0426)
(0.06268 0.0227795 -9.79327)
(0.0173749 0.0753902 -10.3835)
(-0.021035 -0.00445182 -9.96201)
(0.049186 0.0227162 -10.168)
(0.0291301 -0.0271474 -10.0563)
(0.00734493 0.018483 -10.0816)
(0.0130436 -0.0573417 -10.0111)
(0.0047973 -0.0118506 -10.0571)
(-0.010888 -0.116102 -9.18412)
(0.0377949 -0.0862174 -9.94576)
(0.0494962 -0.0980986 -9.7716)
(0.048502 -0.0697778 -9.73282)
(0.0208645 -0.0834965 -9.57017)
(0.0267914 -0.0457644 -9.7711)
(0.0485563 -0.0973374 -9.76874)
(0.0323405 -0.0944605 -9.78864)
(-0.0467463 -0.119479 -9.69971)
(-0.0891215 -0.0114276 -10.1346)
(0.0202775 0.00997766 -10.1836)
(0.0149993 -0.0400855 -9.96624)
(-0.0571457 -0.0969608 -10.0402)
(-0.00158376 -0.0414213 -10.1447)
(0.00252975 0.0281574 -9.99883)
(0.0260165 0.00926815 -10.0177)
(0.0493336 -0.106475 -10.055)
(0.0263 -0.0714519 -10.1848)
(0.0186602 -0.131302 -10.2398)
(0.0436956 -0.158161 -9.62281)
(0.0642205 -0.120957 -10.1826)
(0.0125082 -0.092392 -10.1576)
(0.033321 -0.13989 -10.1579)
(0.0540344 -0.0808548 -10.1595)
(0.032171 -0.144473 -9.84092)
(0.0281808 -0.143074 -9.79916)
(0.0255423 -0.126651 -10.0732)
(0.055965 -0.0812271 -9.90782)
(0.0454158 -0.122088 -9.60521)
(0.0424649 -0.148742 -9.79383)
(0.0228701 -0.115085 -9.79561)
(0.0403433 -0.140944 -9.75843)
(0.0026632 -0.0319024 -10.9823)
(0.0425516 -0.053351 -10.3157)
(0.0240746 0.0993838 -10.5386)
(0.0444018 0.00147456 -10.5802)
(0.00649727 -0.0904464 -10.6306)
(0.0165297 -0.0504063 -10.638)
(0.0133566 -0.0364426 -10.7186)
(0.0613248 0.0259479 -10.5098)
(-0.141873 -0.186826 -9.99196)
(-0.232853 -0.256024 -9.56787)
(-0.14129 -0.0638214 -9.90294)
(0.00520722 -0.0464158 -10.2199)
(-0.00133467 -0.189825 -10.5449)
(-0.177119 -0.132351 -10.3246)
(0.0204284 -0.22646 -10.6336)
(0.0661796 -0.0682886 -11.1009)
(0.0205731 0.139641 -10.0096)
(0.033524 0.177332 -10.1504)
(0.0151344 -0.0529468 -11.2343)
(0.0433907 0.217147 -9.69054)
(0.0612848 0.13922 -9.98829)
(0.023282 0.130282 -10.5227)
(0.0183049 0.168265 -9.73905)
(0.00535848 0.108144 -10.5037)
(-0.0187322 0.3283 -8.66687)
(0.071674 0.205577 -9.19021)
(0.0107195 0.605132 -9.37625)
(-0.0261514 -0.0114614 -10.3517)
(0.0292515 0.141709 -9.34217)
(0.12089 0.143017 -9.34663)
(0.0528898 0.307119 -8.74851)
(0.0379214 0.227694 -8.86946)
(0.029865 -0.0575571 -9.87193)
(0.0985308 -0.150638 -9.88919)
(0.079091 0.0874387 -10.4218)
(0.0356788 0.00364429 -10.1885)
(0.00324417 -0.16835 -9.98456)
(0.0273672 -0.155122 -9.96217)
(0.0191612 0.0289765 -10.1501)
(0.0185613 0.0084295 -10.1201)
(-0.158929 0.759915 -8.99792)
(0.0011758 0.657633 -8.763)
(0.0578133 0.30706 -9.40417)
(0.0845715 0.26279 -7.93476)
(0.033606 0.749214 -8.92622)
(0.0409462 0.699939 -8.91912)
(0.0551008 0.291185 -8.54668)
(0.0432832 0.369262 -8.68463)
(-0.206261 -0.355308 -9.62785)
(-0.766165 -0.467704 -9.08673)
(-0.689598 -0.166379 -9.30876)
(0.0238051 0.000502663 -10.8272)
(-0.0722342 -0.290586 -10.438)
(-0.203667 -0.49117 -9.19581)
(-0.0494007 0.105047 -10.6626)
(-0.0727127 0.05247 -10.5977)
(0.0105555 0.0373432 -10.1215)
(0.0190878 -0.0130029 -10.1154)
(0.0586297 0.067199 -10.0228)
(0.0145079 -0.016216 -10.2489)
(0.00710321 0.0488179 -10.1465)
(0.0186624 0.00915347 -10.1461)
(0.0141717 0.0481604 -10.145)
(0.0108535 0.045727 -10.1416)
(-0.0354798 -0.123983 -11.2302)
(0.0610942 -0.113658 -11.3189)
(0.0414659 0.0746522 -10.8196)
(0.0286243 -0.0129835 -10.8875)
(0.00549272 -0.0561209 -11.2866)
(0.00123087 -0.0116242 -11.285)
(0.00991395 0.0112025 -10.8415)
(0.0256349 0.0248822 -10.7872)
(0.028485 -0.0156242 -9.3013)
(0.0250541 -0.0222044 -10.0144)
(0.0138105 -0.140104 -9.67876)
(0.019014 -0.0324892 -9.99237)
(0.0338285 -0.0398233 -9.99002)
(0.0307884 -0.0727175 -10.237)
(0.0252838 -0.0514093 -10.0434)
(0.0107029 -0.0607727 -10.2338)
(-0.0192742 0.26981 -11.322)
(0.0845341 -0.445087 -10.2246)
(0.0475983 -0.275657 -11.6196)
(0.0884325 0.413106 -11.3253)
(-0.125832 0.02846 -11.1577)
(0.0184062 -0.420014 -11.184)
(-0.0297216 0.318661 -11.2965)
(0.0163768 -0.386284 -10.7536)
(-0.00517836 -0.0355001 -9.72086)
(0.105655 0.115337 -9.11377)
(-0.0243331 0.164233 -9.26762)
(0.00426419 -0.0544947 -9.99276)
(-0.00375603 -0.0947644 -9.74829)
(0.0225947 0.011669 -9.50804)
(0.0269217 -0.094922 -9.70242)
(0.015124 0.063388 -9.36636)
(0.00366152 0.106706 -9.5703)
(-0.0225888 0.0816372 -9.92964)
(0.0333491 0.0120406 -10.0658)
(0.00943463 0.0253332 -10.1448)
(0.0434387 0.042628 -10.3386)
(0.00182151 0.0777038 -10.269)
(0.0191754 0.0100678 -10.1354)
(0.0203785 -0.00320141 -10.1195)
(0.0686629 0.0776904 -10.0946)
(0.0476597 0.0993112 -10.1154)
(-0.0942168 0.513666 -10.0554)
(0.0384326 0.230407 -9.90483)
(0.0549401 0.0810695 -10.0416)
(0.0337035 0.0901536 -10.119)
(0.0446358 0.228482 -9.78402)
(0.0525547 0.285507 -9.7872)
(0.0298675 0.0630798 -9.45134)
(0.0195113 -0.025752 -9.90431)
(-0.0122791 -0.107246 -9.57944)
(0.0205247 0.00262225 -9.92666)
(-0.00147797 -0.0216835 -9.90988)
(0.0203687 -0.0774108 -9.86516)
(0.0100406 0.0692444 -9.84355)
(0.0122522 -0.0265781 -9.80789)
(0.010768 0.00628723 -10.3123)
(0.0242496 -0.0591574 -10.7025)
(0.00807021 0.025538 -10.3582)
(0.0162195 0.0174066 -10.2649)
(0.0175795 0.033276 -10.3696)
(0.0116827 0.010104 -10.568)
(0.0197117 0.0155 -10.2762)
(0.0132229 0.0271816 -10.4036)
(0.0185212 -0.188691 -10.5465)
(-0.0730266 0.00460307 -10.7257)
(0.0253891 -0.0623366 -10.7058)
(0.0203059 -0.0173556 -10.9845)
(0.00484453 -0.154854 -10.8388)
(0.0041412 -0.11011 -10.8262)
(0.00675006 -0.034424 -10.8347)
(0.000941341 -0.00268454 -10.8144)
(0.0158092 0.0236456 -10.4099)
(0.0186954 0.0427797 -10.3552)
(0.0215875 0.0152935 -10.2622)
(0.0146075 0.0178648 -10.2263)
(0.0161093 0.0158621 -10.389)
(0.00951235 0.0396969 -10.315)
(0.0150424 0.0214398 -10.2225)
(0.0115947 0.022838 -10.263)
(-0.022147 -0.0720898 -10.7147)
(0.0523481 -0.146515 -10.6527)
(0.018184 -0.0532625 -10.2048)
(0.0478161 -0.0661969 -10.6413)
(0.0401601 -0.117519 -11.0386)
(0.0123944 -0.142379 -10.9725)
(0.0214727 -0.0582534 -10.5897)
(0.0218654 -0.0313404 -10.5959)
(0.0232884 0.0606208 -9.57594)
(0.0485145 0.0772859 -10.1347)
(0.0350729 0.0490181 -10.0077)
(0.0331117 0.0903358 -9.34548)
(0.0300332 0.0104641 -9.60951)
(0.0406085 0.0741994 -10.0574)
(0.0168054 0.0276759 -9.46963)
(0.027675 0.0113721 -9.92891)
(-0.0106275 0.0210658 -9.90996)
(0.0338975 0.0691941 -10.3784)
(0.0278097 0.04843 -10.3533)
(0.0380629 -0.00103951 -10.1918)
(0.0116453 -0.0379513 -10.0967)
(0.0145848 0.0554062 -10.3765)
(0.023039 0.00569671 -10.1109)
(0.0379642 0.0458902 -10.3738)
(-0.326536 -0.157483 -8.81816)
(-0.406345 -0.145927 -9.51292)
(-0.317837 -0.286141 -9.51139)
(-0.00374998 -0.0318461 -10.9513)
(-0.0341568 -0.108807 -10.3428)
(-0.174361 -0.124022 -8.94805)
(-0.0628979 -0.152191 -10.8981)
(-0.0173204 -0.180424 -10.2517)
(0.029433 0.122121 -11.0081)
(0.0356181 0.294717 -9.88333)
(0.0557196 0.257687 -10.3475)
(0.0512191 0.29039 -9.59887)
(-0.00921631 0.266872 -10.2387)
(0.0110003 0.317412 -10.32)
(0.0173555 0.234781 -10.1268)
(0.0840206 0.182311 -10.0617)
(-0.000319005 -0.0425936 -9.96493)
(0.00685789 0.0285716 -10.2201)
(0.00265201 0.0565215 -10.3119)
(0.0149479 0.0363591 -10.3114)
(0.0116086 0.0544683 -10.2418)
(0.00892249 0.0438656 -10.2139)
(0.0161798 0.036772 -10.2623)
(0.0108234 0.0142765 -10.2666)
(-0.0983394 -0.0639806 -11.0696)
(0.0390342 0.136906 -11.0419)
(0.0254461 0.0933665 -10.6877)
(0.050376 0.0206345 -10.8459)
(0.0304311 0.0376522 -11.1072)
(0.00312041 0.0857175 -11.0782)
(0.0262996 0.0180529 -10.7644)
(0.0210199 0.00579595 -10.7575)
(0.0146671 -0.169983 -9.21401)
(0.0251946 -0.0326498 -8.86346)
(0.0244826 -0.0798513 -9.54878)
(0.0292155 -0.0207888 -9.80637)
(0.020007 -0.122171 -9.16865)
(0.00889994 -0.0892343 -9.15024)
(0.0187307 -0.0745297 -9.56236)
(0.0267937 -0.0750416 -9.59741)
(-0.0783545 0.275232 -9.66126)
(0.0146 0.262768 -9.94762)
(-0.0412484 0.255103 -10.0081)
(0.0162056 0.121891 -10.0306)
(0.0178948 0.242646 -10.0195)
(0.0107987 0.338208 -9.98509)
(0.00204335 0.147333 -10.1048)
(0.00175588 0.228953 -10.1141)
(0.058219 0.0417097 -9.84668)
(0.0115826 0.0278824 -9.93219)
(0.0225074 0.0567286 -10.3062)
(0.0307396 0.00528728 -10.2513)
(0.0160067 -0.0467068 -9.94031)
(-0.00668102 -0.000529486 -9.93577)
(0.0181093 0.0329548 -10.1387)
(0.0150529 0.0187313 -10.1427)
(-0.00213283 -0.0313259 -10.4925)
(0.00285393 -0.0395253 -10.4396)
(0.00983034 0.0448053 -10.157)
(0.00230306 0.00222305 -10.2726)
(0.00349938 -0.0163207 -10.4826)
(-2.75445e-05 -0.0441293 -10.5239)
(0.00498263 -0.008031 -10.254)
(0.00329968 -0.0240408 -10.3755)
(0.00648506 0.391103 -10.0319)
(0.0336842 0.228647 -10.1643)
(0.0348699 0.359831 -9.85755)
(0.031008 0.351838 -10.1509)
(0.00991196 0.364453 -10.0631)
(0.00913905 0.401402 -10.0461)
(0.00752596 0.347706 -10.0649)
(0.0418213 0.36048 -10.0099)
(0.0111167 -0.14336 -11.0652)
(0.0197284 -0.147702 -10.6664)
(-0.0344454 -0.129289 -11.0001)
(0.0112793 -0.0328029 -10.963)
(-0.00979565 -0.166772 -11.1005)
(-0.133378 -0.104012 -11.0752)
(-0.00163817 -0.114753 -11.0611)
(-0.016977 -0.176644 -11.0165)
(0.0635266 0.169853 -10.5538)
(0.0247535 0.153414 -10.7564)
(-0.000235981 0.138677 -11.2205)
(0.030805 0.325649 -10.5169)
(0.0138504 0.150478 -10.7087)
(0.0345305 0.158342 -10.7139)
(0.0322856 0.139785 -10.9267)
(0.0300604 0.168331 -10.9099)
(0.00542919 -0.0782718 -9.45379)
(-0.0029259 0.0912822 -9.20745)
(0.042388 0.0446442 -9.89344)
(0.0149607 0.0843688 -9.29607)
(0.0420171 0.092686 -9.44499)
(0.00308647 0.0626297 -9.38506)
(0.0151365 0.0399588 -9.62856)
(0.0458222 0.0323085 -9.62524)
(-0.0097524 0.226019 -9.27491)
(-0.00366553 0.152551 -9.21081)
(0.0299603 0.217382 -9.66089)
(0.00270963 0.0629092 -9.57682)
(-0.011237 0.173314 -9.28326)
(0.00223497 0.203149 -9.46976)
(0.0173556 0.148549 -9.66578)
(0.00963094 0.177894 -9.65368)
(-0.0664274 -0.0712582 -9.93025)
(0.0463749 -0.0888004 -10.17)
(-0.0182527 -0.147195 -10.3507)
(0.0260706 0.00884202 -9.97)
(0.0368753 -0.0630939 -10.0416)
(0.0135272 -0.0905568 -10.1777)
(0.00579022 -0.0453062 -10.0724)
(0.0245545 -0.0801193 -10.1548)
(0.0166018 0.609108 -8.78397)
(-0.0210934 0.268005 -8.80548)
(0.0193208 0.3365 -9.41958)
(0.0538091 0.275749 -8.34271)
(0.0114808 0.288961 -8.45489)
(0.0325077 0.351284 -8.69546)
(0.0389805 0.327317 -8.45809)
(0.0530707 0.403275 -8.98234)
(0.010449 0.0777465 -9.89168)
(-0.0148775 0.136458 -10.0772)
(0.0276598 0.173052 -10.2449)
(0.0393325 0.157538 -10.1093)
(-0.00805088 0.157023 -10.2018)
(-0.00338316 0.175693 -10.1742)
(0.0412365 0.153054 -10.1888)
(0.00973766 0.219329 -10.1671)
(0.0185244 -0.0223661 -9.89071)
(0.00757947 0.0522004 -10.1171)
(-0.00418438 0.0986998 -10.4469)
(0.0201689 0.0670824 -10.3742)
(0.0192415 0.0114829 -10.0017)
(0.00265845 0.0438999 -10.0659)
(0.00798871 0.0826238 -10.3242)
(0.00986766 0.0477159 -10.3412)
(0.0373843 0.045144 -10.188)
(0.0537014 0.0288986 -10.3502)
(0.0302989 -0.0246678 -10.1907)
(0.0283765 -0.0865508 -10.533)
(0.00727807 0.0146999 -10.4982)
(0.04503 0.013026 -10.6574)
(0.000439106 -0.0827116 -10.5079)
(0.0454861 -0.0772323 -10.5217)
(-0.100686 0.490255 -9.57479)
(0.0167083 0.376203 -9.88704)
(0.0166144 0.384946 -9.41248)
(0.0111618 0.395702 -9.97919)
(0.00323101 0.453993 -9.80315)
(0.0143435 0.437899 -9.61493)
(-0.00449011 0.42756 -9.74361)
(-0.00507789 0.372537 -9.69622)
(-0.382527 0.0748397 -10.8272)
(-0.0141659 0.219952 -10.848)
(0.185926 1.05819 -11.8212)
(-0.04106 -0.582521 -10.6226)
(-0.037485 -0.198609 -11.1123)
(0.106694 0.0222517 -10.462)
(0.171458 0.233363 -11.3124)
(0.123856 0.120355 -11.1531)
(0.0137726 -0.0418699 -10.3312)
(0.0178352 -0.0624069 -10.2387)
(0.0158672 0.0558748 -10.2912)
(0.0168904 0.0120681 -10.3828)
(0.00128904 -0.0471674 -10.3713)
(0.0145221 -0.0804797 -10.2226)
(0.00745317 -0.0260774 -10.7457)
(0.00313017 -0.0255903 -10.6853)
(-0.023474 0.21507 -10.7041)
(-0.00365854 -0.0758983 -11.2747)
(0.0357808 0.271896 -10.4242)
(0.0245018 0.278146 -10.3354)
(-0.0173449 0.16239 -10.9844)
(0.0246604 0.258771 -10.9085)
(0.00748367 0.251994 -10.4678)
(0.0338503 0.377425 -10.4169)
(0.0204869 0.606214 -9.44366)
(0.17463 0.763148 -10.7412)
(0.0903842 0.419876 -9.87117)
(0.0677988 0.172961 -10.1224)
(0.138851 0.106454 -10.2648)
(0.0793826 0.434281 -10.3696)
(0.0157404 0.185114 -10.344)
(0.0693159 0.3827 -10.1641)
(0.0410768 0.451831 -9.22694)
(0.0469108 0.33144 -10.58)
(0.0657481 0.223797 -10.7559)
(0.0109014 0.107789 -10.4734)
(-0.0357369 0.333676 -9.8164)
(0.00369053 0.0187527 -10.7958)
(0.0412847 0.147391 -9.9281)
(0.04908 0.0216547 -10.767)
(-0.0635275 0.310585 -10.7316)
(0.0309556 0.312427 -11.2831)
(-0.0163838 0.272419 -10.3885)
(0.041942 0.211799 -10.5039)
(-0.071032 0.254616 -11.2055)
(-0.0683477 0.440758 -9.82871)
(0.0411575 0.156957 -11.5732)
(-0.0713736 0.259527 -11.6029)
(-0.0127982 -0.307669 -10.9866)
(0.0321217 -0.0119253 -11.0282)
(0.0189988 -0.17157 -11.0556)
(0.0261591 0.292513 -11.0594)
(-0.00185498 -0.129812 -11.0538)
(0.00597609 -0.0847318 -11.0718)
(0.0286226 -0.089621 -11.0155)
(0.0294992 -0.0498571 -11.0536)
(0.00156127 0.0177405 -10.3232)
(0.0132597 0.00446276 -10.2925)
(0.0128854 0.0163223 -10.3256)
(0.00793141 -0.00570905 -10.1677)
(0.00442104 -0.00652944 -10.3239)
(0.00785128 0.000762007 -10.3231)
(0.0099541 -0.00736207 -10.2958)
(0.0159575 -0.000893571 -10.3237)
(-0.130827 -0.263746 -9.86896)
(-0.134664 -0.197622 -9.68547)
(-0.197352 -0.355939 -10.3106)
(-0.00830501 -0.0067405 -10.7922)
(-0.00963762 -0.321766 -10.5443)
(-0.138101 -0.271524 -9.52263)
(-0.00384029 -0.207549 -10.8577)
(0.0209517 -0.312741 -10.4713)
(-0.0195878 -0.112427 -10.0874)
(0.0230102 -0.0709297 -10.286)
(0.0220415 -0.144514 -10.2618)
(0.0605621 -0.116762 -9.6659)
(0.0155429 -0.132615 -10.391)
(0.0342636 -0.135452 -10.316)
(0.0352638 -0.198992 -9.89164)
(0.0360011 -0.007477 -9.68381)
(0.0511165 0.0283668 -8.27349)
(0.00211091 -0.0583718 -9.012)
(0.0414709 0.0237014 -9.14781)
(0.0368813 -0.0292072 -9.71084)
(-0.0103216 0.0896175 -9.72932)
(0.0607431 0.0244024 -9.58614)
(0.0167657 0.0211245 -9.6125)
(-0.0713623 -0.0114606 -9.61303)
(0.060333 0.0964448 -10.3625)
(0.0207189 0.0615107 -10.3636)
(0.00156022 -0.143801 -9.85448)
(0.0412804 0.0130628 -10.2202)
(0.0170119 0.071993 -10.3715)
(0.00438819 0.04419 -10.3324)
(0.0284432 0.0382005 -10.1685)
(0.0224465 0.0509062 -10.218)
(-0.00166857 0.000112067 -10.4611)
(-0.0193728 0.190259 -10.5518)
(-0.00381713 -0.00692537 -10.5024)
(0.00173853 0.00437408 -10.3844)
(-0.00298466 -0.00665871 -10.4623)
(0.0113129 0.0961669 -10.5257)
(-0.0159386 -0.0397396 -10.4168)
(0.00773264 -0.0064543 -10.4532)
(-0.0106571 0.127972 -9.23242)
(-0.0201344 0.165401 -9.03775)
(0.010251 0.161659 -9.48423)
(0.0126227 -0.00555521 -10.078)
(-0.0207875 0.133107 -9.56726)
(0.0083646 0.240537 -9.46332)
(0.017753 0.0346611 -10.2027)
(0.0138338 0.0955156 -10.3753)
(-0.00773138 -0.293544 -9.87559)
(0.0272475 -0.0292862 -10.2675)
(0.0219963 0.0208254 -10.1345)
(0.0250114 -0.0157947 -10.3316)
(0.0177208 -0.0510816 -10.1327)
(0.00707105 0.0196793 -10.2052)
(0.012406 -0.00800253 -10.2727)
(0.0371196 -0.0121835 -10.2089)
(-0.0386723 0.760133 -8.05862)
(-0.00685156 0.402901 -9.23299)
(0.0537443 0.469471 -10.0302)
(0.0258425 0.220063 -10.2471)
(-0.0401532 0.201033 -9.22074)
(0.00393885 0.301193 -9.54237)
(0.0116825 0.330498 -10.0954)
(-0.000777939 0.489883 -9.74715)
(0.0554658 0.142591 -10.1911)
(0.0509065 0.0655385 -10.6935)
(0.0535629 0.0969318 -10.3664)
(0.0503195 0.153694 -9.49119)
(0.0399214 0.122104 -10.0433)
(0.0531947 0.145083 -10.3357)
(0.0631045 0.129356 -9.65825)
(0.0363741 0.145484 -10.2524)
(-0.00178919 -0.161366 -9.27946)
(-0.00404493 -0.129238 -9.04927)
(-0.0185769 -0.0573285 -9.04729)
(0.00529836 0.000730165 -10.0717)
(0.0512637 -0.0861906 -10.3826)
(0.0407625 -0.14157 -9.20958)
(0.0247724 -0.057008 -10.3218)
(-0.00409421 -0.0665821 -9.40313)
(0.0449741 0.0908165 -10.6798)
(0.0299813 0.0128451 -10.7166)
(-0.030638 -0.153852 -11.0483)
(0.0358822 0.0555808 -10.8683)
(0.0385309 0.0464541 -10.6341)
(0.0270573 -0.0185698 -10.732)
(0.0115796 0.0305871 -10.7783)
(0.00549863 -0.0582692 -10.9095)
(-0.00177873 0.00834657 -10.4754)
(0.0262362 0.103328 -10.3249)
(0.00918202 -0.00199126 -10.3905)
(0.00296937 0.0310165 -10.5143)
(-0.0029372 0.0119413 -10.4854)
(-0.00387005 0.0186857 -10.442)
(0.00245309 0.0136353 -10.5013)
(-0.000270994 0.00226631 -10.4781)
(-0.00584231 0.0923569 -10.3781)
(0.0695337 0.0764875 -10.174)
(-0.000362509 0.0104874 -10.3842)
(0.00599886 0.00920312 -10.3455)
(0.0294663 -0.0179408 -10.7811)
(0.00269002 0.00438832 -10.301)
(0.0235299 0.00683879 -10.3536)
(-0.0114484 0.00290735 -10.4023)
(0.0259786 -0.0590896 -9.28463)
(0.0170623 0.108249 -9.06454)
(0.00790032 0.214759 -9.0512)
(0.0298855 0.104033 -9.59028)
(0.0384739 0.0383808 -9.03578)
(0.0300028 0.106856 -8.99215)
(0.0254525 0.169247 -8.86201)
(-0.0190575 0.154833 -8.91375)
(0.0220614 0.738875 -8.6309)
(0.0737572 0.724911 -9.26155)
(0.0497114 0.379103 -9.66149)
(0.0184719 0.617487 -9.57802)
(0.0361065 0.65907 -9.18702)
(0.0296317 0.722639 -9.16749)
(0.0224372 0.550458 -9.41049)
(0.0303128 0.514284 -9.62518)
(0.0324661 -0.034519 -9.68588)
(0.137939 0.118918 -9.01224)
(0.0682658 0.0389542 -10.024)
(0.0932238 0.121467 -9.50118)
(0.129095 0.0294711 -9.08267)